       4
 i =      480, time =    24000.000, E =         0.0000011432
  H         1.0385191585        0.8740328695        0.3886084372
  H         0.9876156611        0.0035917578        0.9126732077
  H         2.0818717301       -0.1405951505        0.6304576925
  H         1.8070654503       -0.4582114768       -0.3578193375
