4
# Step: 0 Box:    8.0000    8.0000    8.0000 
H         2.343941035    -0.767042456     1.081846758    -0.000875495    -0.001125281    -0.000155028
H         2.029436204    -0.246631280     0.232199851     0.000290645     0.000163368    -0.000428872
H         2.852021693     0.311793790     0.098033929     0.000066012    -0.000249140    -0.000971973
H         2.835485402     0.542588793     1.052717808     0.000518838     0.001211052     0.001555873
4
# Step: 1 Box:    8.0000    8.0000    8.0000 
H         2.292940655    -0.809892824     0.977341551    -0.000027667     0.000023011    -0.001318839
H         1.993187446    -0.263142715     0.214120872    -0.000612671     0.000062717    -0.000020067
H         2.892769848     0.267857659     0.169291504     0.000496726    -0.000547221     0.002091341
H         2.881986384     0.645886619     1.104044419     0.000143612     0.000461492    -0.000752435
4
# Step: 2 Box:    8.0000    8.0000    8.0000 
H         2.301493670    -0.851093987     0.881544955    -0.000076423    -0.000749195    -0.000509314
H         1.996822182    -0.139781045     0.243665357     0.000576294     0.001733670     0.000614746
H         2.946979772     0.133502593     0.235415732     0.000648185    -0.001375548    -0.000515136
H         2.815588710     0.698081067     1.104172302    -0.001148056     0.000391073     0.000409703
