4
# Step: 0 Box:    8.0000    8.0000    8.0000 
H         2.343941035    -0.767042456     1.081846758     0.000875495     0.001125281     0.000155028
H         2.029436204    -0.246631280     0.232199851    -0.000290645    -0.000163368     0.000428872
H         2.852021693     0.311793790     0.098033929    -0.000066012     0.000249140     0.000971973
H         2.835485402     0.542588793     1.052717808    -0.000518838    -0.001211052    -0.001555873
4
# Step: 1 Box:    8.0000    8.0000    8.0000 
H         2.459311492    -0.617561741     1.057678542     0.001198614     0.001186613    -0.000095658
H         1.993693835    -0.262326896     0.272990033    -0.000212061     0.000104090    -0.000113450
H         2.827719076     0.248840891     0.077517812    -0.000641815    -0.001255486    -0.001196183
H         2.780159930     0.471756703     1.056611959    -0.000344738    -0.000035216     0.001405291
4
# Step: 2 Box:    8.0000    8.0000    8.0000 
H         2.551130042    -0.528113794     1.056629470     0.000072512     0.000394814    -0.000113926
H         1.962894876    -0.289678803     0.261862302    -0.000170951    -0.000821540     0.000614186
H         2.765041071     0.191762552     0.092819677    -0.000110600     0.000565087     0.000854008
H         2.781818345     0.466739110     1.053486897     0.000209039    -0.000138360    -0.001354267
4
# Step: 3 Box:    8.0000    8.0000    8.0000 
H         2.520296169    -0.568486120     1.111511286    -0.000031744    -0.001051986     0.001446460
H         1.993795148    -0.357856508     0.338771818     0.000466080    -0.000053158    -0.000186592
H         2.735524835     0.266267245     0.013139189    -0.000893797     0.000284658    -0.001405820
H         2.811268182     0.500784557     1.001376053     0.000459461     0.000820488     0.000145952
4
# Step: 4 Box:    8.0000    8.0000    8.0000 
H         2.525464190    -0.662503365     1.210863133    -0.000278605    -0.000311323    -0.000508975
H         2.008487987    -0.392359158     0.318162208    -0.000058772    -0.001006839     0.000987033
H         2.663713164     0.294894288     0.021802001     0.000026294     0.000395185     0.000662857
H         2.863218993     0.600677520     0.913971004     0.000311083     0.000922978    -0.001140914
4
# Step: 5 Box:    8.0000    8.0000    8.0000 
H         2.547993241    -0.674573976     1.139773169     0.001262574    -0.000181910     0.000056180
H         1.978809857    -0.440670820     0.414505076    -0.000761540     0.000698148    -0.000231998
H         2.656324966     0.236386968     0.002925920    -0.000316968    -0.001484704    -0.000146993
H         2.877756270     0.719567222     0.907594182    -0.000184066     0.000968467     0.000322811
4
# Step: 6 Box:    8.0000    8.0000    8.0000 
H         2.660857021    -0.687314571     1.114452862     0.000034218     0.000055381    -0.000915617
H         1.931724036    -0.339460129     0.465175696     0.000512108     0.000657461     0.001891541
H         2.682795630     0.143828192     0.049484542     0.000767725    -0.000146110     0.000153617
H         2.785507647     0.723656010     0.835685246    -0.001314052    -0.000566731    -0.001129541
