4
# Step: 0 Box:    8.0000    8.0000    8.0000 
H         2.967936113    -0.588118024     0.448597772    -0.000230896    -0.000061228    -0.000720967
H         2.292586766    -0.446394238     1.093369163     0.000348733     0.000367605     0.000820732
H         2.234796308     0.530073314     0.928200849    -0.000162465    -0.000057222    -0.000592438
H         2.565566317     0.345154343    -0.005366580     0.000044628    -0.000249154     0.000492673
4
# Step: 1 Box:    8.0000    8.0000    8.0000 
H         2.948379985    -0.583707632     0.366515037    -0.000827336     0.000105418     0.000053462
H         2.316694934    -0.424303818     1.197212101     0.000942791     0.000253334    -0.000056603
H         2.207698931     0.539381717     0.897771000    -0.000559246     0.000173900     0.000406389
H         2.588111653     0.309345238     0.003303066     0.000443791    -0.000532651    -0.000403248
4
# Step: 2 Box:    8.0000    8.0000    8.0000 
H         2.845188734    -0.567616806     0.366533805    -0.000659161     0.000043600    -0.000751641
H         2.419605140    -0.383925896     1.216477606     0.000570513     0.000377261     0.001221221
H         2.181202513     0.506886164     0.869155587    -0.000017430    -0.000518163    -0.000934632
H         2.614889116     0.285372152     0.012634205     0.000106078     0.000097303     0.000465052
4
# Step: 3 Box:    8.0000    8.0000    8.0000 
H         2.764912442    -0.602027927     0.321703626    -0.000931113    -0.000601215     0.000336860
H         2.514974011    -0.328968540     1.266212138     0.001164076     0.000731712    -0.000727150
H         2.104775849     0.494935452     0.861980356    -0.000940502    -0.000111644     0.000380971
H         2.676223202     0.276776739     0.014905085     0.000707539    -0.000018852     0.000009319
4
# Step: 4 Box:    8.0000    8.0000    8.0000 
H         2.655420337    -0.696442348     0.338833912    -0.001007878    -0.001149116     0.000084146
H         2.633879913    -0.238223874     1.249523692     0.001091645     0.000691553     0.000341502
H         2.083561512     0.430100952     0.797158386    -0.000133469    -0.000638820    -0.000821324
H         2.688023743     0.345281102     0.079285213     0.000049702     0.001096384     0.000395676
4
# Step: 5 Box:    8.0000    8.0000    8.0000 
H         2.571629712    -0.825271672     0.438707271    -0.000544259    -0.001255888     0.001394377
H         2.717728667    -0.210412435     1.194519011     0.000301442    -0.000018854    -0.000872822
H         2.027125667     0.382564486     0.802744099     0.000111092    -0.000362950     0.000018040
H         2.744401458     0.493835562     0.028830824     0.000131725     0.001637693    -0.000539595
