4
# Step: 0 Box:    8.0000    8.0000    8.0000 
H         1.889418412     0.700339751     0.646067510    -0.000007729     0.000004522     0.000015768
H         2.708730149     0.279526116     1.004827117     0.000004378     0.000002881    -0.000005733
H         2.871788609    -0.065069958     0.121373157     0.000002082     0.000009525     0.000006034
H         1.959061297    -0.279132133    -0.023232402     0.000018585     0.000003691     0.000000436
4
# Step: 1 Box:    8.0000    8.0000    8.0000 
H         1.844363426     0.760026679     0.741945259     0.000004010     0.000003703     0.000008476
H         2.747912233     0.295823054     1.099862088     0.000006542     0.000004663     0.000007545
H         2.963592140     0.088101392     0.087559993    -0.000001346     0.000018553     0.000006434
H         2.048913996    -0.298973624    -0.012781494     0.000006557    -0.000008148    -0.000007429
4
# Step: 2 Box:    8.0000    8.0000    8.0000 
H         1.935381475     0.800366810     0.862439745     0.000003665     0.000007643     0.000001126
H         2.713184137     0.322810704     1.102350419     0.000003901    -0.000006643     0.000015424
H         2.951133146     0.271911377     0.136676167    -0.000010179     0.000017104    -0.000005999
H         2.161270888    -0.364130951    -0.036007738     0.000016437    -0.000001644     0.000002624
