ITEM: TIMESTEP
0
ITEM: NUMBER OF ATOMS
2
 ITEM: BOX BOUNDS xy xz yz pp pp pp
0.0 30.0
0.0 30.0
0.0 30.0
ITEM: ATOMS id type x y z vx vy vz
1 1 5.65345 29.4492 1.03257 -0.0150593 0.0261823 -0.01964
2 1 4.23043 1.19767 28.4487 0.0211128 -0.00118808 0.0144564
ITEM: TIMESTEP
0
ITEM: NUMBER OF ATOMS
2
 ITEM: BOX BOUNDS xy xz yz pp pp pp
0.0 30.0
0.0 30.0
0.0 30.0
ITEM: ATOMS id type x y z vx vy vz
1 1 5.6796 29.3918 1.06956 -0.0117046 0.0275802 -0.0180855
2 1 4.18907 1.19877 28.426 0.0173864 0.000318475 0.0105042
ITEM: TIMESTEP
0
ITEM: NUMBER OF ATOMS
2
 ITEM: BOX BOUNDS xy xz yz pp pp pp
0.0 30.0
0.0 30.0
0.0 30.0
ITEM: ATOMS id type x y z vx vy vz
1 1 5.69966 29.3443 1.10486 -0.00937744 0.020531 -0.0160734
2 1 4.1564 1.20289 28.4052 0.0168963 -0.00488607 0.0100762
ITEM: TIMESTEP
0
ITEM: NUMBER OF ATOMS
2
 ITEM: BOX BOUNDS xy xz yz pp pp pp
0.0 30.0
0.0 30.0
0.0 30.0
ITEM: ATOMS id type x y z vx vy vz
1 1 5.71784 29.2991 1.13737 -0.00768967 0.0243224 -0.0144247
2 1 4.12399 1.21059 28.3936 0.0144682 -0.00207519 0.00142456
ITEM: TIMESTEP
0
ITEM: NUMBER OF ATOMS
2
 ITEM: BOX BOUNDS xy xz yz pp pp pp
0.0 30.0
0.0 30.0
0.0 30.0
ITEM: ATOMS id type x y z vx vy vz
1 1 5.73258 29.2527 1.16702 -0.00723399 0.0213172 -0.0120072
2 1 4.09142 1.21693 28.3945 0.0189712 -0.00263124 -0.00348969
ITEM: TIMESTEP
0
ITEM: NUMBER OF ATOMS
2
 ITEM: BOX BOUNDS xy xz yz pp pp pp
0.0 30.0
0.0 30.0
0.0 30.0
ITEM: ATOMS id type x y z vx vy vz
1 1 5.75472 29.212 1.18012 -0.0126923 0.0192448 -0.00165511
2 1 4.05385 1.22513 28.4018 0.0161864 -0.00330197 -0.00582607
ITEM: TIMESTEP
0
ITEM: NUMBER OF ATOMS
2
 ITEM: BOX BOUNDS xy xz yz pp pp pp
0.0 30.0
0.0 30.0
0.0 30.0
ITEM: ATOMS id type x y z vx vy vz
1 1 5.77342 29.1805 1.17519 -0.00639319 0.0158243 0.00719363
2 1 4.02084 1.23491 28.4173 0.014465 -0.00677011 -0.0126524
ITEM: TIMESTEP
0
ITEM: NUMBER OF ATOMS
2
 ITEM: BOX BOUNDS xy xz yz pp pp pp
0.0 30.0
0.0 30.0
0.0 30.0
ITEM: ATOMS id type x y z vx vy vz
1 1 5.78135 29.1494 1.15511 -0.00446355 0.0145229 0.0124724
2 1 3.99663 1.24533 28.4499 0.00963681 -0.00159336 -0.0178649
ITEM: TIMESTEP
0
ITEM: NUMBER OF ATOMS
2
 ITEM: BOX BOUNDS xy xz yz pp pp pp
0.0 30.0
0.0 30.0
0.0 30.0
ITEM: ATOMS id type x y z vx vy vz
1 1 5.79331 29.1275 1.12963 -0.00560867 0.00650026 0.0148364
2 1 3.98289 1.24659 28.4864 0.00543704 -0.000820597 -0.0181489
ITEM: TIMESTEP
0
ITEM: NUMBER OF ATOMS
2
 ITEM: BOX BOUNDS xy xz yz pp pp pp
0.0 30.0
0.0 30.0
0.0 30.0
ITEM: ATOMS id type x y z vx vy vz
1 1 5.80028 29.1201 1.09424 -0.00281039 0.00335349 0.017834
2 1 3.97632 1.24976 28.5235 0.00281039 -0.00335349 -0.017834
ITEM: TIMESTEP
0
ITEM: NUMBER OF ATOMS
2
 ITEM: BOX BOUNDS xy xz yz pp pp pp
0.0 30.0
0.0 30.0
0.0 30.0
ITEM: ATOMS id type x y z vx vy vz
1 1 5.8009 29.1127 1.04872 -0.00235302 -0.00221552 -0.0258398
2 1 3.96913 1.25454 28.5647 -0.00462959 0.00142219 0.0219124
ITEM: TIMESTEP
0
ITEM: NUMBER OF ATOMS
2
 ITEM: BOX BOUNDS xy xz yz pp pp pp
0.0 30.0
0.0 30.0
0.0 30.0
ITEM: ATOMS id type x y z vx vy vz
1 1 5.79762 29.105 0.992229 -0.00385175 -0.00283874 -0.0300009
2 1 3.96413 1.24901 28.6146 0.000155515 -0.00449924 0.0293072
ITEM: TIMESTEP
0
ITEM: NUMBER OF ATOMS
2
 ITEM: BOX BOUNDS xy xz yz pp pp pp
0.0 30.0
0.0 30.0
0.0 30.0
ITEM: ATOMS id type x y z vx vy vz
1 1 5.78476 29.104 0.934326 -0.00690974 0.0029307 -0.030203
2 1 3.97111 1.23808 28.6809 0.00296679 -0.00602132 0.0364322
ITEM: TIMESTEP
0
ITEM: NUMBER OF ATOMS
2
 ITEM: BOX BOUNDS xy xz yz pp pp pp
0.0 30.0
0.0 30.0
0.0 30.0
ITEM: ATOMS id type x y z vx vy vz
1 1 5.76652 29.1064 0.872685 -0.0114096 0.000345688 -0.0303524
2 1 3.97773 1.22063 28.7544 0.00589323 -0.0109235 0.0392985
ITEM: TIMESTEP
0
ITEM: NUMBER OF ATOMS
2
 ITEM: BOX BOUNDS xy xz yz pp pp pp
0.0 30.0
0.0 30.0
0.0 30.0
ITEM: ATOMS id type x y z vx vy vz
1 1 5.7454 29.111 0.820453 -0.0069438 0.002964 -0.0229804
2 1 3.9897 1.19353 28.8326 0.0048853 -0.0156302 0.0420661
