1
# Step: 0 Box:       inf    0.0000    0.0000 
H         0.570242604     0.000000000     0.000000000    -0.253689211    -0.163643181     0.091884641
1
# Step: 1 Box:       inf    0.0000    0.0000 
H         0.564241482     0.000000000     0.000000000    -0.231460398    -0.163643181     0.091884641
1
# Step: 2 Box:       inf    0.0000    0.0000 
H         0.559832556     0.000000000     0.000000000    -0.151129981    -0.163643181     0.091884641
1
# Step: 3 Box:       inf    0.0000    0.0000 
H         0.556294664     0.000000000     0.000000000    -0.133582067    -0.163643181     0.091884641
1
# Step: 4 Box:       inf    0.0000    0.0000 
H         0.553958755     0.000000000     0.000000000    -0.052384202    -0.163643181     0.091884641
1
# Step: 5 Box:       inf    0.0000    0.0000 
H         0.552759613     0.000000000     0.000000000    -0.013111328    -0.163643181     0.091884641
1
# Step: 6 Box:       inf    0.0000    0.0000 
H         0.551792960     0.000000000     0.000000000     0.002031897    -0.163643181     0.091884641
1
# Step: 7 Box:       inf    0.0000    0.0000 
H         0.552343950     0.000000000     0.000000000     0.024616254    -0.163643181     0.091884641
1
# Step: 8 Box:       inf    0.0000    0.0000 
H         0.553505550     0.000000000     0.000000000     0.062335654    -0.163643181     0.091884641
1
# Step: 9 Box:       inf    0.0000    0.0000 
H         0.555254150     0.000000000     0.000000000     0.077542603    -0.163643181     0.091884641
1
# Step: 10 Box:       inf    0.0000    0.0000 
H         0.557469663     0.000000000     0.000000000     0.090996467    -0.163643181     0.091884641
1
# Step: 11 Box:       inf    0.0000    0.0000 
H         0.560055104     0.000000000     0.000000000     0.129574118    -0.163643181     0.091884641
1
# Step: 12 Box:       inf    0.0000    0.0000 
H         0.563987918     0.000000000     0.000000000     0.168339388    -0.163643181     0.091884641
1
# Step: 13 Box:       inf    0.0000    0.0000 
H         0.568736512     0.000000000     0.000000000     0.190299846    -0.163643181     0.091884641
1
# Step: 14 Box:       inf    0.0000    0.0000 
H         0.574542202     0.000000000     0.000000000     0.242345184    -0.163643181     0.091884641
1
# Step: 15 Box:       inf    0.0000    0.0000 
H         0.580837834     0.000000000     0.000000000     0.268027940    -0.163643181     0.091884641
1
# Step: 16 Box:       inf    0.0000    0.0000 
H         0.588197544     0.000000000     0.000000000     0.332818846    -0.163643181     0.091884641
1
# Step: 17 Box:       inf    0.0000    0.0000 
H         0.597017268     0.000000000     0.000000000     0.360782168    -0.163643181     0.091884641
1
# Step: 18 Box:       inf    0.0000    0.0000 
H         0.606362272     0.000000000     0.000000000     0.402255956    -0.163643181     0.091884641
1
# Step: 19 Box:       inf    0.0000    0.0000 
H         0.616625577     0.000000000     0.000000000     0.435010992    -0.163643181     0.091884641
1
# Step: 20 Box:       inf    0.0000    0.0000 
H         0.628196939     0.000000000     0.000000000     0.490621872    -0.163643181     0.091884641
1
# Step: 21 Box:       inf    0.0000    0.0000 
H         0.640800611     0.000000000     0.000000000     0.543948571    -0.163643181     0.091884641
1
# Step: 22 Box:       inf    0.0000    0.0000 
H         0.654454994     0.000000000     0.000000000     0.566149369    -0.163643181     0.091884641
1
# Step: 23 Box:       inf    0.0000    0.0000 
H         0.669437901     0.000000000     0.000000000     0.612551374    -0.163643181     0.091884641
1
# Step: 24 Box:       inf    0.0000    0.0000 
H         0.685094263     0.000000000     0.000000000     0.647083342    -0.163643181     0.091884641
1
# Step: 25 Box:       inf    0.0000    0.0000 
H         0.701118267     0.000000000     0.000000000     0.659095653    -0.163643181     0.091884641
