1
# Step: 0 Box:       inf    0.0000    0.0000 
H         0.570242604     0.000000000     0.000000000     0.253689211     0.163643181    -0.091884641
1
# Step: 1 Box:       inf    0.0000    0.0000 
H         0.577164915     0.000000000     0.000000000     0.295329647     0.163643181    -0.091884641
1
# Step: 2 Box:       inf    0.0000    0.0000 
H         0.585056779     0.000000000     0.000000000     0.340946428     0.163643181    -0.091884641
1
# Step: 3 Box:       inf    0.0000    0.0000 
H         0.594046465     0.000000000     0.000000000     0.366890409     0.163643181    -0.091884641
1
# Step: 4 Box:       inf    0.0000    0.0000 
H         0.603529196     0.000000000     0.000000000     0.371272028     0.163643181    -0.091884641
1
# Step: 5 Box:       inf    0.0000    0.0000 
H         0.613629314     0.000000000     0.000000000     0.424930103     0.163643181    -0.091884641
1
# Step: 6 Box:       inf    0.0000    0.0000 
H         0.625399809     0.000000000     0.000000000     0.521024803     0.163643181    -0.091884641
1
# Step: 7 Box:       inf    0.0000    0.0000 
H         0.638530881     0.000000000     0.000000000     0.531031042     0.163643181    -0.091884641
1
# Step: 8 Box:       inf    0.0000    0.0000 
H         0.652105168     0.000000000     0.000000000     0.611476498     0.163643181    -0.091884641
1
# Step: 9 Box:       inf    0.0000    0.0000 
H         0.666678800     0.000000000     0.000000000     0.552991899     0.163643181    -0.091884641
1
# Step: 10 Box:       inf    0.0000    0.0000 
H         0.681086578     0.000000000     0.000000000     0.592587863     0.163643181    -0.091884641
1
# Step: 11 Box:       inf    0.0000    0.0000 
H         0.696142734     0.000000000     0.000000000     0.615218349     0.163643181    -0.091884641
1
# Step: 12 Box:       inf    0.0000    0.0000 
H         0.712321274     0.000000000     0.000000000     0.684548970     0.163643181    -0.091884641
