4
# Step: 0 Box:    8.0000    8.0000    8.0000 
H         2.254236152    -0.695346984     0.398623652     0.001440827    -0.001469848    -0.001240544
H         3.048582606    -0.206292233     0.252444076    -0.000467065     0.000807548     0.000712656
H         2.830011153     0.526911238     0.919338282    -0.000375419    -0.000053546     0.001091867
H         1.928049007     0.215452148     0.894392019    -0.000598344     0.000715846    -0.000563979
4
# Step: 1 Box:    8.0000    8.0000    8.0000 
H         2.350466312    -0.849905716     0.337000750     0.001477834    -0.000475312    -0.000099898
H         3.127065035    -0.075355974     0.247648893     0.000446526     0.000709516    -0.000495979
H         2.786686899     0.468070291     1.055798581    -0.000819310    -0.001084511     0.001363999
H         1.796660563     0.297915569     0.824349805    -0.001105051     0.000850307    -0.000768122
4
# Step: 2 Box:    8.0000    8.0000    8.0000 
H         2.595116136    -0.816317970     0.337530925     0.001916283    -0.000253459     0.000175844
H         3.044121275    -0.020941811     0.260935502    -0.000800483     0.001424662     0.000440229
H         2.666370149     0.281445909     1.131411413    -0.001177469    -0.002050699     0.000261836
H         1.755271138     0.396538040     0.734920188     0.000061669     0.000879495    -0.000877909
