4
# Step: 0 Box:    8.0000    8.0000    8.0000 
H         1.535325115    -0.343294944     0.745621532    -0.000082239     0.000281260     0.000347032
H         2.277620551    -0.699165882     1.282848868    -0.000261396     0.000121900     0.000265186
H         3.012766583    -0.281683451     0.750340791     0.000237841     0.000609844     0.000076488
H         2.437963879     0.159214356     0.014881387     0.000105793    -0.001013004    -0.000688706
4
# Step: 1 Box:    8.0000    8.0000    8.0000 
H         1.535217040    -0.267667080     0.753096121     0.000215471     0.000941008     0.000038205
H         2.281419908    -0.700394959     1.287307151     0.000501137     0.000195047    -0.000629214
H         3.020764148    -0.189809032     0.764208441    -0.000319942     0.000736573     0.000697958
H         2.426274922    -0.007058850    -0.010919135    -0.000396666    -0.001872628    -0.000106949
4
# Step: 2 Box:    8.0000    8.0000    8.0000 
H         1.596286584    -0.153974297     0.775575929     0.000716337     0.001094207     0.000363358
H         2.314816550    -0.701612184     1.210111913    -0.000070788    -0.000447317    -0.000321595
H         2.953956655    -0.082535201     0.824073852    -0.000852724     0.001295543    -0.000120153
H         2.398616121    -0.226808239    -0.016069116     0.000207174    -0.001942434     0.000078390
4
# Step: 3 Box:    8.0000    8.0000    8.0000 
H         1.628105943    -0.072452029     0.847106590    -0.000423376     0.000300393     0.000949521
H         2.307798570    -0.688581155     1.202808415     0.000000815     0.000957361     0.000143918
H         2.854491859    -0.007900271     0.784755247    -0.000586274    -0.000094861    -0.000335629
H         2.473279428    -0.395996466    -0.040977673     0.001008835    -0.001162893    -0.000757810
