1
# Step: 0 Box:       inf    0.0000    0.0000 
H         0.423169051     0.000000000     0.000000000    -0.479226250    -0.211842443    -0.086788077
1
# Step: 1 Box:       inf    0.0000    0.0000 
H         0.411645653     0.000000000     0.000000000    -0.433046107    -0.211842443    -0.086788077
1
# Step: 2 Box:       inf    0.0000    0.0000 
H         0.401753634     0.000000000     0.000000000    -0.355175231    -0.211842443    -0.086788077
1
# Step: 3 Box:       inf    0.0000    0.0000 
H         0.393378068     0.000000000     0.000000000    -0.319614248    -0.211842443    -0.086788077
