1
# Step: 0 Box:       inf    0.0000    0.0000 
H         0.423169051     0.000000000     0.000000000     0.479226250     0.211842443     0.086788077
1
# Step: 1 Box:       inf    0.0000    0.0000 
H         0.434779823     0.000000000     0.000000000     0.472917128     0.211842443     0.086788077
1
# Step: 2 Box:       inf    0.0000    0.0000 
H         0.446819354     0.000000000     0.000000000     0.539973735     0.211842443     0.086788077
1
# Step: 3 Box:       inf    0.0000    0.0000 
H         0.460125717     0.000000000     0.000000000     0.555987302     0.211842443     0.086788077
1
# Step: 4 Box:       inf    0.0000    0.0000 
H         0.473656083     0.000000000     0.000000000     0.554407771     0.211842443     0.086788077
1
# Step: 5 Box:       inf    0.0000    0.0000 
H         0.487562914     0.000000000     0.000000000     0.545182188     0.211842443     0.086788077
1
# Step: 6 Box:       inf    0.0000    0.0000 
H         0.501942954     0.000000000     0.000000000     0.579523169     0.211842443     0.086788077
1
# Step: 7 Box:       inf    0.0000    0.0000 
H         0.517317565     0.000000000     0.000000000     0.654511491     0.211842443     0.086788077
1
# Step: 8 Box:       inf    0.0000    0.0000 
H         0.534973305     0.000000000     0.000000000     0.738252389     0.211842443     0.086788077
1
# Step: 9 Box:       inf    0.0000    0.0000 
H         0.554104396     0.000000000     0.000000000     0.796464410     0.211842443     0.086788077
1
# Step: 10 Box:       inf    0.0000    0.0000 
H         0.574616618     0.000000000     0.000000000     0.865479277     0.211842443     0.086788077
1
# Step: 11 Box:       inf    0.0000    0.0000 
H         0.595760110     0.000000000     0.000000000     0.865177784     0.211842443     0.086788077
1
# Step: 12 Box:       inf    0.0000    0.0000 
H         0.617815924     0.000000000     0.000000000     0.901531125     0.211842443     0.086788077
