4
# Step: 0 Box:    8.0000    8.0000    8.0000 
H         2.967936113    -0.588118024     0.448597772     0.000230896     0.000061228     0.000720967
H         2.292586766    -0.446394238     1.093369163    -0.000348733    -0.000367605    -0.000820732
H         2.234796308     0.530073314     0.928200849     0.000162465     0.000057222     0.000592438
H         2.565566317     0.345154343    -0.005366580    -0.000044628     0.000249154    -0.000492673
4
# Step: 1 Box:    8.0000    8.0000    8.0000 
H         3.051907240    -0.572692752     0.477011882     0.000405985     0.000038665     0.000604282
H         2.178474045    -0.487707501     1.080013801    -0.000525786    -0.000077796    -0.000642913
H         2.289516709     0.507262192     0.929931314     0.000491544    -0.000375242     0.000023102
H         2.540987510     0.393853346    -0.022155793    -0.000371743     0.000414373     0.000015529
4
# Step: 2 Box:    8.0000    8.0000    8.0000 
H         3.056464286    -0.596096220     0.590628246     0.000769944    -0.000397226     0.000908718
H         2.190943673    -0.483410035     0.932424801    -0.000589161    -0.000092163    -0.001126328
H         2.326126650     0.493984382     0.972063208     0.000475483     0.000029677     0.000115777
H         2.487350894     0.426237050    -0.030315051    -0.000656266     0.000459711     0.000101833
4
# Step: 3 Box:    8.0000    8.0000    8.0000 
H         3.160638279    -0.660923364     0.695467986    -0.000089665    -0.000771910     0.001265083
H         2.119133902    -0.484200131     0.841451314     0.000687928     0.000049053    -0.000890650
H         2.377329956     0.463824455     0.951619595     0.000242104    -0.000507642    -0.000025827
H         2.403783367     0.522014107    -0.023737692    -0.000840367     0.001230499    -0.000348606
4
# Step: 4 Box:    8.0000    8.0000    8.0000 
H         3.129493337    -0.757719305     0.853818519     0.000622993    -0.001042615     0.001622765
H         2.216814668    -0.522568745     0.732161498    -0.000150584    -0.000492493    -0.001139951
H         2.411342953     0.446165581     0.936915806     0.000477832     0.000119719    -0.000646772
H         2.303234546     0.674837426    -0.058094619    -0.000950242     0.001415388     0.000163958
