2
# Step: 0 Box:    3.0000    3.0000    3.0000
H         0.151208975     0.037175913    -0.052260040    -2.089732932     1.450559907     0.395430858
H         0.443429303    -0.147506781    -0.048644597     0.273418375     1.198687509     3.468553275
2
# Step: 1 Box:    3.0000    3.0000    3.0000
H         0.147228484     0.040033005    -0.051480621    -1.872791750     1.363325892     0.404366716
H         0.443799310    -0.144967644    -0.041699780     0.082974502     1.387343007     3.470556571
2
# Step: 2 Box:    3.0000    3.0000    3.0000
H         0.143712650     0.042607738    -0.050671307    -1.646591292     1.204734607     0.408779516
H         0.443658979    -0.141992278    -0.034748643    -0.225572690     1.594707657     3.497275068
2
# Step: 3 Box:    3.0000    3.0000    3.0000
H         0.140646891     0.044841823    -0.049841047    -1.411433469     1.017311936     0.406231722
H         0.442954363    -0.138637526    -0.027802998    -0.472960438     1.763857241     3.444418518
2
# Step: 4 Box:    3.0000    3.0000    3.0000
H         0.138140006     0.046701538    -0.049090004    -1.091366276     0.840704534     0.372431832
H         0.441719222    -0.134962838    -0.020936046    -0.764516896     1.901001688     3.452602070
2
# Step: 5 Box:    3.0000    3.0000    3.0000
H         0.136245140     0.048174679    -0.048332617    -0.781805221     0.653520904     0.389755230
H         0.439908399    -0.130985075    -0.014041303    -1.028943013     2.059743993     3.421482991
2
# Step: 6 Box:    3.0000    3.0000    3.0000
H         0.134937886     0.049331037    -0.047511605    -0.543476971     0.500721685     0.433626987
H         0.437606337    -0.126778488    -0.007279908    -1.300147250     2.194745408     3.357944466
2
# Step: 7 Box:    3.0000    3.0000    3.0000
H         0.134130622     0.050231853    -0.046650985    -0.266581005     0.393885270     0.442026561
H         0.434785939    -0.122196668    -0.000651940    -1.523080956     2.361553551     3.265438330
2
# Step: 8 Box:    3.0000    3.0000    3.0000
H         0.133831128     0.050919089    -0.045723028    -0.050517023     0.276158947     0.474918615
H         0.431497604    -0.117359564     0.005830649    -1.736402711     2.471896695     3.227494030
2
# Step: 9 Box:    3.0000    3.0000    3.0000
H         0.133839233     0.051337687    -0.044785429     0.044282426     0.161075766     0.489215878
H         0.427867139    -0.112300052     0.012220855    -1.847844898     2.590752677     3.171459478
