1
# Step: 0 Box:       inf    0.0000    0.0000 
H         0.154878683     0.000000000     0.000000000    -0.491022225    -0.228219272    -0.321387835
1
# Step: 1 Box:       inf    0.0000    0.0000 
H         0.143330231     0.000000000     0.000000000    -0.452147559    -0.228219272    -0.321387835
1
# Step: 2 Box:       inf    0.0000    0.0000 
H         0.132115108     0.000000000     0.000000000    -0.443000440    -0.228219272    -0.321387835
1
# Step: 3 Box:       inf    0.0000    0.0000 
H         0.120970556     0.000000000     0.000000000    -0.442322406    -0.228219272    -0.321387835
1
# Step: 4 Box:       inf    0.0000    0.0000 
H         0.109666613     0.000000000     0.000000000    -0.462111802    -0.228219272    -0.321387835
1
# Step: 5 Box:       inf    0.0000    0.0000 
H         0.098124386     0.000000000     0.000000000    -0.485155865    -0.228219272    -0.321387835
1
# Step: 6 Box:       inf    0.0000    0.0000 
H         0.085762601     0.000000000     0.000000000    -0.503454737    -0.228219272    -0.321387835
1
# Step: 7 Box:       inf    0.0000    0.0000 
H         0.073945017     0.000000000     0.000000000    -0.483050559    -0.228219272    -0.321387835
1
# Step: 8 Box:       inf    0.0000    0.0000 
H         0.061345997     0.000000000     0.000000000    -0.540784678    -0.228219272    -0.321387835
1
# Step: 9 Box:       inf    0.0000    0.0000 
H         0.047180043     0.000000000     0.000000000    -0.592133594    -0.228219272    -0.321387835
1
# Step: 10 Box:       inf    0.0000    0.0000 
H         0.032690805     0.000000000     0.000000000    -0.578749577    -0.228219272    -0.321387835
1
# Step: 11 Box:       inf    0.0000    0.0000 
H         0.017159921     0.000000000     0.000000000    -0.649385295    -0.228219272    -0.321387835
1
# Step: 12 Box:       inf    0.0000    0.0000 
H         0.000087826     0.000000000     0.000000000    -0.690361767    -0.228219272    -0.321387835
1
# Step: 13 Box:       inf    0.0000    0.0000 
H        -0.017944301     0.000000000     0.000000000    -0.738273481    -0.228219272    -0.321387835
1
# Step: 14 Box:       inf    0.0000    0.0000 
H        -0.036331977     0.000000000     0.000000000    -0.749168052    -0.228219272    -0.321387835
1
# Step: 15 Box:       inf    0.0000    0.0000 
H        -0.054851148     0.000000000     0.000000000    -0.738129080    -0.228219272    -0.321387835
1
# Step: 16 Box:       inf    0.0000    0.0000 
H        -0.073962871     0.000000000     0.000000000    -0.763321227    -0.228219272    -0.321387835
1
# Step: 17 Box:       inf    0.0000    0.0000 
H        -0.093448261     0.000000000     0.000000000    -0.800259233    -0.228219272    -0.321387835
1
# Step: 18 Box:       inf    0.0000    0.0000 
H        -0.113135515     0.000000000     0.000000000    -0.784975154    -0.228219272    -0.321387835
1
# Step: 19 Box:       inf    0.0000    0.0000 
H        -0.133781211     0.000000000     0.000000000    -0.825504233    -0.228219272    -0.321387835
1
# Step: 20 Box:       inf    0.0000    0.0000 
H        -0.153849006     0.000000000     0.000000000    -0.792971070    -0.228219272    -0.321387835
1
# Step: 21 Box:       inf    0.0000    0.0000 
H        -0.174438251     0.000000000     0.000000000    -0.834194447    -0.228219272    -0.321387835
1
# Step: 22 Box:       inf    0.0000    0.0000 
H        -0.195813367     0.000000000     0.000000000    -0.886080788    -0.228219272    -0.321387835
1
# Step: 23 Box:       inf    0.0000    0.0000 
H        -0.217732168     0.000000000     0.000000000    -0.896330253    -0.228219272    -0.321387835
1
# Step: 24 Box:       inf    0.0000    0.0000 
H        -0.239409760     0.000000000     0.000000000    -0.871728163    -0.228219272    -0.321387835
1
# Step: 25 Box:       inf    0.0000    0.0000 
H        -0.261632379     0.000000000     0.000000000    -0.928981113    -0.228219272    -0.321387835
1
# Step: 26 Box:       inf    0.0000    0.0000 
H        -0.285212482     0.000000000     0.000000000    -0.938904771    -0.228219272    -0.321387835
1
# Step: 27 Box:       inf    0.0000    0.0000 
H        -0.309339096     0.000000000     0.000000000    -0.942654149    -0.228219272    -0.321387835
