2
# Step: 0 Box:    3.0000    3.0000    3.0000
H         0.034702744    -0.159405648     0.061463727    -0.489631580    -1.778553803     0.253332376
H         0.409353065    -0.042579667     0.033855622    -0.976277009     1.128511424     1.729463119
2
# Step: 1 Box:    3.0000    3.0000    3.0000
H         0.034058908    -0.162849993     0.061907088    -0.150217348    -1.689225492     0.203332056
H         0.407062841    -0.040453839     0.037356072    -1.316283240     1.009434172     1.744497997
2
# Step: 2 Box:    3.0000    3.0000    3.0000
H         0.034054763    -0.166174053     0.062303015     0.154622666    -1.620395708     0.182331683
H         0.404045498    -0.038539429     0.040907128    -1.716501466     0.914354106     1.787059816
