2
# Step: 0 Box:    3.0000    3.0000    3.0000
H         0.035987089    -0.155815064     0.060906350     0.788424113     1.815300263    -0.314640743
H         0.410954033    -0.044970549     0.030417179     0.650528218    -1.247518829    -1.715869354
2
# Step: 1 Box:    3.0000    3.0000    3.0000
H         0.037934521    -0.152085865     0.060294609     1.181028856     1.918468689    -0.325784208
H         0.411935061    -0.047570441     0.026986715     0.317913856    -1.349275863    -1.689205507
2
# Step: 2 Box:    3.0000    3.0000    3.0000
H         0.040653437    -0.148140516     0.059599679     1.558007704     2.030285828    -0.399498882
H         0.412297099    -0.050379683     0.023600016     0.020375106    -1.450565440    -1.685857182
2
# Step: 3 Box:    3.0000    3.0000    3.0000
H         0.044157292    -0.143951186     0.058751717     1.941650976     2.109322455    -0.461994233
H         0.411975538    -0.053382597     0.020260768    -0.353000953    -1.525907419    -1.673292480
2
# Step: 4 Box:    3.0000    3.0000    3.0000
H         0.048393991    -0.139644167     0.057797345     2.345285421     2.174081130    -0.494316277
H         0.410893918    -0.056525876     0.017014166    -0.740081563    -1.611453077    -1.580585478
2
# Step: 5 Box:    3.0000    3.0000    3.0000
H         0.053502772    -0.135200265     0.056800023     2.737380875     2.269457416    -0.534383379
H         0.408996273    -0.059834626     0.013928607    -1.141317215    -1.722213341    -1.503059933
2
# Step: 6 Box:    3.0000    3.0000    3.0000
H         0.059402691    -0.130651425     0.055721902     3.150677515     2.308260526    -0.549497970
H         0.406256632    -0.063362595     0.010970639    -1.561244755    -1.838609340    -1.456327370
2
# Step: 7 Box:    3.0000    3.0000    3.0000
H         0.066002138    -0.126057359     0.054554121     3.404640904     2.325564963    -0.605920409
H         0.402759031    -0.067133861     0.008128092    -1.892922237    -1.890261570    -1.387345330
2
# Step: 8 Box:    3.0000    3.0000    3.0000
H         0.072967027    -0.121442801     0.053287415     3.524549956     2.297219848    -0.647585849
H         0.398875460    -0.070920032     0.005372740    -1.913562551    -1.905642981    -1.365416148
