2
# Step: 0 Box:    3.0000    3.0000    3.0000
H         0.034054763    -0.166174053     0.062303015     0.154622666    -1.620395708     0.182331683
H         0.404045498    -0.038539429     0.040907128    -1.716501466     0.914354106     1.787059816
2
# Step: 1 Box:    3.0000    3.0000    3.0000
H         0.034730484    -0.169224336     0.062658315     0.525311762    -1.443067364     0.162251427
H         0.400240454    -0.036841845     0.044470764    -2.090809506     0.798080358     1.774864692
2
# Step: 2 Box:    3.0000    3.0000    3.0000
H         0.036179206    -0.172009950     0.062949859     0.917789132    -1.333790282     0.141612344
H         0.395772481    -0.035468424     0.047973176    -2.406365049     0.615700945     1.733609452
2
# Step: 3 Box:    3.0000    3.0000    3.0000
H         0.038350222    -0.174488154     0.063235958     1.241497886    -1.163266045     0.155651693
H         0.390685343    -0.034360469     0.051445087    -2.708693424     0.487097854     1.705456232
2
# Step: 4 Box:    3.0000    3.0000    3.0000
H         0.041164326    -0.176653027     0.063520631     1.586659151    -0.988722753     0.139876877
H         0.384853321    -0.033604325     0.054892289    -3.110819402     0.266519508     1.733379753
2
# Step: 5 Box:    3.0000    3.0000    3.0000
H         0.044718604    -0.178423098     0.063811605     1.962866507    -0.810612250     0.131769175
H         0.378305356    -0.033224874     0.058292590    -3.408773074     0.112251654     1.675303784
2
# Step: 6 Box:    3.0000    3.0000    3.0000
H         0.048940520    -0.179895261     0.064088913     2.269545554    -0.668700647     0.141386721
H         0.371211895    -0.033196218     0.061655421    -3.712879398    -0.071202273     1.704872009
2
# Step: 7 Box:    3.0000    3.0000    3.0000
H         0.053734668    -0.181142387     0.064375406     2.506233556    -0.595911420     0.145361382
H         0.363561372    -0.033545309     0.065121595    -3.930193343    -0.242298312     1.726931750
