4
# Step: 0 Box:    8.0000    8.0000    8.0000 
H         1.846645479     0.178150863     0.682962746    -0.000019376    -0.000004395    -0.000010750
H         2.639728290     0.255371804     1.241934356    -0.000024614    -0.000020513     0.000010734
H         3.027142966    -0.613408253     0.829889306    -0.000010436     0.000001662     0.000001134
H         2.318691826    -0.745531724     0.182208223    -0.000004510    -0.000001582    -0.000015974
4
# Step: 1 Box:    8.0000    8.0000    8.0000 
H         1.711844924     0.079137556     0.515906426    -0.000003998    -0.000008070    -0.000010761
H         2.368828309     0.050820501     1.363524443    -0.000023436    -0.000024044     0.000002880
H         2.958831694    -0.611949359     0.804719427    -0.000015283     0.000008025    -0.000004600
H         2.224173065    -0.682931183     0.109534811    -0.000004851     0.000004050     0.000000490
4
# Step: 2 Box:    8.0000    8.0000    8.0000 
H         1.691387255     0.077438086     0.484575667    -0.000004784     0.000006295    -0.000002756
H         2.101632894    -0.233444752     1.322629876    -0.000024334    -0.000022510     0.000005937
H         2.821327468    -0.489241531     0.781835572    -0.000008717     0.000011021    -0.000003986
H         2.190457653    -0.712983842     0.088975926    -0.000000725    -0.000011050    -0.000008914
4
# Step: 3 Box:    8.0000    8.0000    8.0000 
H         1.508859522     0.212196741     0.549463440    -0.000016547     0.000012950     0.000009370
H         1.903888928    -0.396795920     1.278874452    -0.000018049    -0.000010589    -0.000000698
H         2.747207725    -0.465638229     0.791820836    -0.000014267    -0.000002460    -0.000008638
H         2.270473550    -0.865708016    -0.036510546     0.000017338    -0.000013181    -0.000007980
4
# Step: 4 Box:    8.0000    8.0000    8.0000 
H         1.391292496     0.298721703     0.669812599    -0.000006795     0.000005159     0.000009206
H         1.690900943    -0.519973359     1.154404614    -0.000008191    -0.000010306    -0.000014564
H         2.679490154    -0.442738919     0.729338754    -0.000018655     0.000002291    -0.000000303
H         2.358639212    -0.982593756    -0.048076451     0.000006909    -0.000008405    -0.000001078
