2
# Step: 0 Box:    3.0000    3.0000    3.0000
H        -0.156780757    -0.017441182     0.405038772     1.727492927    -1.470046617    -2.703739198
H         0.200844534     0.004762875     0.228394032    -3.245090924     0.046459926    -0.619473917
2
# Step: 1 Box:    3.0000    3.0000    3.0000
H        -0.153026299    -0.020352673     0.399483819     2.026971409    -1.429341585    -2.858981280
H         0.194008660     0.004803203     0.227294556    -3.589092680    -0.031942627    -0.476080454
2
# Step: 2 Box:    3.0000    3.0000    3.0000
H        -0.148623024    -0.023182867     0.393612109     2.374835773    -1.399506131    -3.009786726
H         0.186490052     0.004711792     0.226512676    -3.908461117    -0.063488476    -0.304067979
2
# Step: 3 Box:    3.0000    3.0000    3.0000
H        -0.143517391    -0.025971528     0.387432234     2.724783323    -1.390295553    -3.174442157
H         0.178277948     0.004539448     0.226125820    -4.288498796    -0.104511116    -0.108678203
2
# Step: 4 Box:    3.0000    3.0000    3.0000
H        -0.137754262    -0.028719010     0.380903247     2.988719462    -1.360727012    -3.327923657
H         0.169409552     0.004276806     0.226108589    -4.546531451    -0.153549296     0.051713326
2
# Step: 5 Box:    3.0000    3.0000    3.0000
H        -0.131656711    -0.031372972     0.374260858     3.017890055    -1.301591544    -3.283049703
H         0.160285783     0.003929553     0.226230175    -4.540560491    -0.152379688     0.038403151
