4
# Step: 0 Box:    8.0000    8.0000    8.0000 
H         2.151416429    -0.417258511     0.126281917    -0.000453354     0.000763332     0.000061052
H         2.886722519     0.278390221     0.215383958    -0.000324653    -0.000451586    -0.000508831
H         3.144251475    -0.055001788     1.091068411     0.000363949     0.000443681     0.000183507
H         2.152709329     0.092383774     1.245960183     0.000414058    -0.000755426     0.000264272
4
# Step: 1 Box:    8.0000    8.0000    8.0000 
H         2.110184462    -0.350734462     0.145378493    -0.000349592     0.000442486     0.000170242
H         2.911975472     0.258542918     0.116078917     0.000489404    -0.000074300    -0.000690628
H         3.123613175    -0.012286288     1.075868653     0.000091218     0.000349462    -0.000717817
H         2.189326643     0.002991638     1.341368406    -0.000231030    -0.000717646     0.001238203
4
# Step: 2 Box:    8.0000    8.0000    8.0000 
H         2.092248246    -0.304067007     0.150224152    -0.000217312     0.000195545     0.000020719
H         2.893276350     0.244598985     0.083991790    -0.000613766     0.000121055    -0.000098719
H         3.164040590     0.002433361     1.024446664    -0.000044421    -0.000204451     0.000212470
H         2.185534566    -0.044451424     1.420031863     0.000875499    -0.000112147    -0.000134470
4
# Step: 3 Box:    8.0000    8.0000    8.0000 
H         2.035106031    -0.330143162     0.157567505    -0.000484083    -0.000421644     0.000093236
H         2.840245972     0.296325758     0.132324286    -0.000508977     0.000553971     0.000995517
H         3.178629177    -0.040481217     1.024795544     0.000879486    -0.000504413    -0.000666879
H         2.281118572    -0.027187355     1.364007134     0.000113574     0.000372086    -0.000421875
4
# Step: 4 Box:    8.0000    8.0000    8.0000 
H         2.050585653    -0.352850382     0.184067547     0.000643908    -0.000018542     0.000351737
H         2.768108736     0.356632037     0.194921320    -0.000594067     0.000600966    -0.000088619
H         3.215300872    -0.113781314     0.939969102    -0.000853525    -0.000689082    -0.000606753
H         2.301104491     0.008513793     1.359736500     0.000803683     0.000106659     0.000343635
4
# Step: 5 Box:    8.0000    8.0000    8.0000 
H         2.094547528    -0.347540796     0.188063252    -0.000172900     0.000058743    -0.000459085
H         2.727955280     0.396078824     0.167255971    -0.000270052     0.000063970    -0.000175720
H         3.144379511    -0.157345269     0.859537128     0.000260521    -0.000132721    -0.000807255
H         2.368217434     0.007321483     1.463838118     0.000182432     0.000010010     0.001442059
