ITEM: TIMESTEP
0
ITEM: NUMBER OF ATOMS
2
 ITEM: BOX BOUNDS xy xz yz pp pp pp
0.0 30.0
0.0 30.0
0.0 30.0
ITEM: ATOMS id type x y z vx vy vz
1 1 6.435 0.0605688 0.283302 0.0111063 0.0297912 0.0260146
2 1 3.05458 29.3845 29.7234 -0.0123847 -0.00516227 0.0159654
ITEM: TIMESTEP
0
ITEM: NUMBER OF ATOMS
2
 ITEM: BOX BOUNDS xy xz yz pp pp pp
0.0 30.0
0.0 30.0
0.0 30.0
ITEM: ATOMS id type x y z vx vy vz
1 1 6.40945 0.00136219 0.228269 0.012347 0.0295102 0.0267897
2 1 3.08591 29.4025 29.6981 -0.017643 -0.0129615 0.0118175
ITEM: TIMESTEP
0
ITEM: NUMBER OF ATOMS
2
 ITEM: BOX BOUNDS xy xz yz pp pp pp
0.0 30.0
0.0 30.0
0.0 30.0
ITEM: ATOMS id type x y z vx vy vz
1 1 6.38841 29.9491 0.17649 0.0112824 0.024667 0.0254654
2 1 3.11995 29.4245 29.6791 -0.0145369 -0.0101813 0.00921
ITEM: TIMESTEP
0
ITEM: NUMBER OF ATOMS
2
 ITEM: BOX BOUNDS xy xz yz pp pp pp
0.0 30.0
0.0 30.0
0.0 30.0
ITEM: ATOMS id type x y z vx vy vz
1 1 6.37078 29.8995 0.131243 0.00735056 0.0240807 0.0211755
2 1 3.13937 29.4418 29.66 -0.00490792 -0.00740757 0.0070334
ITEM: TIMESTEP
0
ITEM: NUMBER OF ATOMS
2
 ITEM: BOX BOUNDS xy xz yz pp pp pp
0.0 30.0
0.0 30.0
0.0 30.0
ITEM: ATOMS id type x y z vx vy vz
1 1 6.3625 29.8532 0.0877024 0.00217826 0.0206577 0.0212432
2 1 3.14837 29.46 29.6432 -0.0024382 -0.00887767 0.00901906
ITEM: TIMESTEP
0
ITEM: NUMBER OF ATOMS
2
 ITEM: BOX BOUNDS xy xz yz pp pp pp
0.0 30.0
0.0 30.0
0.0 30.0
ITEM: ATOMS id type x y z vx vy vz
1 1 6.35882 29.8168 0.0474935 0.00242285 0.0164176 0.0196157
2 1 3.15166 29.4706 29.6291 0.00222329 -0.00422507 0.00626525
ITEM: TIMESTEP
0
ITEM: NUMBER OF ATOMS
2
 ITEM: BOX BOUNDS xy xz yz pp pp pp
0.0 30.0
0.0 30.0
0.0 30.0
ITEM: ATOMS id type x y z vx vy vz
1 1 6.36333 29.785 0.0126114 -0.00667276 0.0174685 0.0118929
2 1 3.14339 29.4781 29.6182 0.004969 -0.00303646 0.00467292
ITEM: TIMESTEP
0
ITEM: NUMBER OF ATOMS
2
 ITEM: BOX BOUNDS xy xz yz pp pp pp
0.0 30.0
0.0 30.0
0.0 30.0
ITEM: ATOMS id type x y z vx vy vz
1 1 6.38547 29.7482 29.9913 -0.0147793 0.0190826 0.00754776
2 1 3.13332 29.4782 29.6132 0.00569197 7.32397e-05 0.00307648
ITEM: TIMESTEP
0
ITEM: NUMBER OF ATOMS
2
 ITEM: BOX BOUNDS xy xz yz pp pp pp
0.0 30.0
0.0 30.0
0.0 30.0
ITEM: ATOMS id type x y z vx vy vz
1 1 6.41382 29.7076 29.9786 -0.0123808 0.0224084 0.00641801
2 1 3.11426 29.4785 29.6072 0.0125198 -0.0020646 0.00590038
ITEM: TIMESTEP
0
ITEM: NUMBER OF ATOMS
2
 ITEM: BOX BOUNDS xy xz yz pp pp pp
0.0 30.0
0.0 30.0
0.0 30.0
ITEM: ATOMS id type x y z vx vy vz
1 1 6.44274 29.6608 29.9617 -0.014515 0.0251569 0.0081737
2 1 3.09646 29.4856 29.596 0.00754091 -0.00618259 0.00724257
ITEM: TIMESTEP
0
ITEM: NUMBER OF ATOMS
2
 ITEM: BOX BOUNDS xy xz yz pp pp pp
0.0 30.0
0.0 30.0
0.0 30.0
ITEM: ATOMS id type x y z vx vy vz
1 1 6.47282 29.6114 29.9457 -0.0135789 0.025845 0.0072015
2 1 3.08275 29.5006 29.5839 0.00567262 -0.00704772 0.00734774
ITEM: TIMESTEP
0
ITEM: NUMBER OF ATOMS
2
 ITEM: BOX BOUNDS xy xz yz pp pp pp
0.0 30.0
0.0 30.0
0.0 30.0
ITEM: ATOMS id type x y z vx vy vz
1 1 6.49568 29.5593 29.9293 -0.0105386 0.0254783 0.00863204
2 1 3.07513 29.5184 29.5674 0.000599544 -0.00729657 0.00437713
ITEM: TIMESTEP
0
ITEM: NUMBER OF ATOMS
2
 ITEM: BOX BOUNDS xy xz yz pp pp pp
0.0 30.0
0.0 30.0
0.0 30.0
ITEM: ATOMS id type x y z vx vy vz
1 1 6.51294 29.5105 29.9131 0.00723439 -0.0227512 -0.00773509
2 1 3.07555 29.5333 29.5581 0.0022704 0.00842039 -0.00429282
