ITEM: TIMESTEP
0
ITEM: NUMBER OF ATOMS
16
ITEM: BOX BOUNDS xy xz yz pp pp pp
-6.4204999999999997e+00 1.4579499999999999e+01 0.0000000000000000e+00
5.8730000000000004e-01 2.1587299999999999e+01 0.0000000000000000e+00
-1.3050999999999999e+00 1.9694900000000001e+01 0.0000000000000000e+00
ITEM: ATOMS id type x y z vx vy vz
1 1 -5.837 3.9251 0.0683 0 0 0
2 1 -4.3354 4.125 -0.2254 0 0 0
3 2 -6.2616 2.6453 -0.4659 0 0 0
4 3 -5.9811 0.5873 -0.3725 0 0 0
5 3 -5.7556 1.4556 1.1682 0 0 0
6 1 -5.5782 1.4928 0.0894 0 0 0
7 4 -3.9014 1.5491 -1.2821 0 0 0
8 4 -3.5359 0.7734 0.2585 0 0 0
9 1 -3.5161 2.9443 0.335 0 0 0
10 4 -4.1833 4.1993 -1.3051 0 0 0
11 4 -3.992 5.0609 0.2213 0 0 0
12 1 -4.0677 1.6082 -0.2035 0 0 0
13 4 -2.4658 3.0536 0.0552 0 0 0
14 4 -3.5691 2.9482 1.4267 0 0 0
15 3 -6.0202 3.9427 1.1466 0 0 0
16 3 -6.4205 4.7175 -0.4084 0 0 0
