Title

16 atoms
16 bonds
31 angles
52 dihedrals
0 impropers

4 atom types
3 bond types
3 angle types
11 dihedral types
0 21 xlo xhi
0 21 ylo yhi
0 21 zlo zhi

Masses

1	12.01078
2	15.99943
3	1.007947
4	1.007947


Pair Coeffs

1	0.10884061	3.3795318
2	0.16846514	3.0251065
3	0.016409246	2.5832257
4	0.015779483	2.6445434

Bond Coeffs

1 harmonic	209.99346340955	1.527940216866
2 harmonic	217.15696764085	1.421832315661
3 harmonic	359.82124644905	1.090139506109


Angle Coeffs

1 harmonic	60.59416350775	110.0631999136
2 harmonic	118.9256094675	111.9874516071
3 harmonic	37.541272178735	108.5839257083


Dihedral Coeffs

1 fourier 1	0.42948937236	3	0
2 fourier 1	0.2543919562345	2	180
3 fourier 1	0.8736160241398	1	180
4 fourier 1	0.08586880062944	3	0
5 fourier 1	0.2473392733270333	3	0
6 fourier 1	0.4843877863717	3	0
7 fourier 1	-0.1562321443911	2	180
8 fourier 1	0.1526959283148	3	0
9 fourier 1	0.1006464828354	3	0
10 fourier 1	0.482791305955	1	0
11 fourier 1	0.2516073078789	3	0


Atoms

1	1	1	0.1324	-5.837	3.9251	0.0683
2	1	1	-0.1114	-4.3354	4.125	-0.2254
3	1	2	-0.4256	-6.2616	2.6453	-0.4659
4	1	3	0.0432	-5.9811	0.5873	-0.3725
5	1	3	0.0432	-5.7556	1.4556	1.1682
6	1	1	0.1324	-5.5782	1.4928	0.0894
7	1	4	0.0507	-3.9014	1.5491	-1.2821
8	1	4	0.0507	-3.5359	0.7734	0.2585
9	1	1	-0.0774	-3.5161	2.9443	0.335
10	1	4	0.0507	-4.1833	4.1993	-1.3051
11	1	4	0.0507	-3.992	5.0609	0.2213
12	1	1	-0.1114	-4.0677	1.6082	-0.2035
13	1	4	0.0427	-2.4658	3.0536	0.0552
14	1	4	0.0427	-3.5691	2.9482	1.4267
15	1	3	0.0432	-6.0202	3.9427	1.1466
16	1	3	0.0432	-6.4205	4.7175	-0.4084

Bonds

1	1	1	2
2	2	1	3
3	3	1	15
4	3	1	16
5	1	2	9
6	3	2	10
7	3	2	11
8	3	8	12
9	1	6	12
10	3	4	6
11	3	5	6
12	2	3	6
13	1	9	12
14	3	9	13
15	3	9	14
16	3	7	12

Angles

1	1	2	1	16
2	3	4	6	5
3	1	7	12	9
4	1	2	1	3
5	1	4	6	12
6	1	5	6	12
7	2	1	3	6
8	1	6	12	8
9	1	3	6	4
10	1	2	9	13
11	1	12	9	14
12	1	3	1	15
13	3	15	1	16
14	1	1	2	10
15	1	2	1	15
16	1	1	2	9
17	3	13	9	14
18	1	6	12	9
19	3	7	12	8
20	1	9	2	10
21	1	8	12	9
22	1	2	9	14
23	1	3	6	5
24	1	6	12	7
25	1	1	2	11
26	1	3	1	16
27	1	2	9	12
28	3	10	2	11
29	1	3	6	12
30	1	12	9	13
31	1	9	2	11

Dihedrals

1	5	6	3	1	16
2	11	10	2	1	16
3	9	3	6	12	7
3	10	3	6	12	7
4	4	2	9	12	7
5	11	4	6	12	7
6	11	11	2	9	13
7	4	6	12	9	13
8	6	2	1	3	6
8	7	2	1	3	6
9	5	1	3	6	4
10	11	10	2	9	13
11	11	8	12	9	14
12	4	1	2	9	13
13	4	9	2	1	15
14	4	5	6	12	9
15	11	7	12	9	13
16	11	4	6	12	8
17	11	11	2	9	14
18	9	3	6	12	8
18	10	3	6	12	8
19	11	11	2	1	15
20	11	5	6	12	7
21	4	2	9	12	8
22	9	3	1	2	10
22	10	3	1	2	10
23	11	10	2	1	15
24	8	3	1	2	9
25	4	6	12	9	14
26	5	6	3	1	15
27	4	11	2	9	12
28	1	2	9	12	6
28	2	2	9	12	6
28	3	2	9	12	6
29	9	3	1	2	11
29	10	3	1	2	11
30	11	10	2	9	14
31	4	1	2	9	14
32	5	1	3	6	5
33	4	10	2	9	12
34	11	8	12	9	13
35	4	9	2	1	16
36	1	1	2	9	12
36	2	1	2	9	12
36	3	1	2	9	12
37	11	7	12	9	14
38	6	1	3	6	12
38	7	1	3	6	12
39	8	3	6	12	9
40	11	5	6	12	8
41	4	4	6	12	9
42	11	11	2	1	16
