1
# Step: 0 Box:       inf    0.0000    0.0000 
H        -0.784884785     0.000000000     0.000000000     0.122675035    -0.031304099     0.582715141
1
# Step: 1 Box:       inf    0.0000    0.0000 
H        -0.783186285     0.000000000     0.000000000     0.034097772    -0.031304099     0.582715141
1
# Step: 2 Box:       inf    0.0000    0.0000 
H        -0.782746875     0.000000000     0.000000000     0.035906254    -0.031304099     0.582715141
1
# Step: 3 Box:       inf    0.0000    0.0000 
H        -0.782094354     0.000000000     0.000000000     0.015295812    -0.031304099     0.582715141
1
# Step: 4 Box:       inf    0.0000    0.0000 
H        -0.782103718     0.000000000     0.000000000    -0.037762652    -0.031304099     0.582715141
1
# Step: 5 Box:       inf    0.0000    0.0000 
H        -0.783770115     0.000000000     0.000000000    -0.081893786    -0.031304099     0.582715141
1
# Step: 6 Box:       inf    0.0000    0.0000 
H        -0.786914577     0.000000000     0.000000000    -0.161392746    -0.031304099     0.582715141
1
# Step: 7 Box:       inf    0.0000    0.0000 
H        -0.791626859     0.000000000     0.000000000    -0.207703583    -0.031304099     0.582715141
1
# Step: 8 Box:       inf    0.0000    0.0000 
H        -0.797710962     0.000000000     0.000000000    -0.240792783    -0.031304099     0.582715141
1
# Step: 9 Box:       inf    0.0000    0.0000 
H        -0.803882090     0.000000000     0.000000000    -0.253480909    -0.031304099     0.582715141
1
# Step: 10 Box:       inf    0.0000    0.0000 
H        -0.811066384     0.000000000     0.000000000    -0.288676114    -0.031304099     0.582715141
1
# Step: 11 Box:       inf    0.0000    0.0000 
H        -0.819046874     0.000000000     0.000000000    -0.371778704    -0.031304099     0.582715141
1
# Step: 12 Box:       inf    0.0000    0.0000 
H        -0.827811610     0.000000000     0.000000000    -0.333151858    -0.031304099     0.582715141
1
# Step: 13 Box:       inf    0.0000    0.0000 
H        -0.836136159     0.000000000     0.000000000    -0.315304927    -0.031304099     0.582715141
1
# Step: 14 Box:       inf    0.0000    0.0000 
H        -0.844100066     0.000000000     0.000000000    -0.313652585    -0.031304099     0.582715141
1
# Step: 15 Box:       inf    0.0000    0.0000 
H        -0.852588490     0.000000000     0.000000000    -0.346076864    -0.031304099     0.582715141
1
# Step: 16 Box:       inf    0.0000    0.0000 
H        -0.861526421     0.000000000     0.000000000    -0.330893533    -0.031304099     0.582715141
1
# Step: 17 Box:       inf    0.0000    0.0000 
H        -0.869230571     0.000000000     0.000000000    -0.291040792    -0.031304099     0.582715141
1
# Step: 18 Box:       inf    0.0000    0.0000 
H        -0.877206245     0.000000000     0.000000000    -0.327598589    -0.031304099     0.582715141
1
# Step: 19 Box:       inf    0.0000    0.0000 
H        -0.885721068     0.000000000     0.000000000    -0.376345320    -0.031304099     0.582715141
1
# Step: 20 Box:       inf    0.0000    0.0000 
H        -0.895604924     0.000000000     0.000000000    -0.421306749    -0.031304099     0.582715141
1
# Step: 21 Box:       inf    0.0000    0.0000 
H        -0.906451473     0.000000000     0.000000000    -0.452343797    -0.031304099     0.582715141
1
# Step: 22 Box:       inf    0.0000    0.0000 
H        -0.917781341     0.000000000     0.000000000    -0.449591671    -0.031304099     0.582715141
1
# Step: 23 Box:       inf    0.0000    0.0000 
H        -0.929213276     0.000000000     0.000000000    -0.450166126    -0.031304099     0.582715141
1
# Step: 24 Box:       inf    0.0000    0.0000 
H        -0.940964237     0.000000000     0.000000000    -0.459400055    -0.031304099     0.582715141
1
# Step: 25 Box:       inf    0.0000    0.0000 
H        -0.952509531     0.000000000     0.000000000    -0.470020119    -0.031304099     0.582715141
1
# Step: 26 Box:       inf    0.0000    0.0000 
H        -0.963748389     0.000000000     0.000000000    -0.451346926    -0.031304099     0.582715141
1
# Step: 27 Box:       inf    0.0000    0.0000 
H        -0.974563570     0.000000000     0.000000000    -0.440650315    -0.031304099     0.582715141
1
# Step: 28 Box:       inf    0.0000    0.0000 
H        -0.985358846     0.000000000     0.000000000    -0.434837361    -0.031304099     0.582715141
1
# Step: 29 Box:       inf    0.0000    0.0000 
H        -0.996096615     0.000000000     0.000000000    -0.416363847    -0.031304099     0.582715141
