4
# Step: 0 Box:    8.0000    8.0000    8.0000 
H         1.294619252     0.883807368     0.356214973    -0.000008359    -0.000001336    -0.000004875
H         1.278883065     0.164511136     0.916478945    -0.000003665    -0.000016411     0.000002253
H         2.059797985    -0.232420393     0.480673882    -0.000003439     0.000009381     0.000028042
H         1.530907058    -0.350702953    -0.422862767    -0.000007179    -0.000009495     0.000008152
