2
# Step: 0 Box:    3.0000    3.0000    3.0000
H        -0.169287099    -0.050171797     0.523516100     0.761724394     2.498757940     1.115922208
H         0.105024742     0.078384885     0.175597523     1.854200649    -0.837661379     1.496554619
2
# Step: 1 Box:    3.0000    3.0000    3.0000
H        -0.167642663    -0.045100231     0.525620111     0.869170606     2.564401538     0.969227048
H         0.108625347     0.076667006     0.178742527     1.749311857    -0.904140046     1.645590398
2
# Step: 2 Box:    3.0000    3.0000    3.0000
H        -0.165877736    -0.039933731     0.527396124     0.908082426     2.627516232     0.825050913
H         0.111982849     0.074837408     0.182125385     1.594174604    -0.933494285     1.722423741
2
# Step: 3 Box:    3.0000    3.0000    3.0000
H        -0.163972724    -0.034672504     0.528922797     0.991017824     2.632383465     0.722140910
H         0.115017554     0.072976062     0.185775944     1.448660897    -0.924015763     1.934047581
2
# Step: 4 Box:    3.0000    3.0000    3.0000
H        -0.161876461    -0.029409078     0.530229901     1.121679102     2.629002932     0.559894494
H         0.117763905     0.071155697     0.189732141     1.319248267    -0.892658664     2.057303189
2
# Step: 5 Box:    3.0000    3.0000    3.0000
H        -0.159526476    -0.024132318     0.531147727     1.239858431     2.633007094     0.342240803
H         0.120265160     0.069404807     0.194069478     1.222742051    -0.881411560     2.264247611
2
# Step: 6 Box:    3.0000    3.0000    3.0000
H        -0.156878765    -0.018780346     0.531686200     1.367269852     2.681606992     0.182558732
H         0.122543912     0.067627206     0.198746881     1.069718769    -0.900187871     2.425803351
2
# Step: 7 Box:    3.0000    3.0000    3.0000
H        -0.154019742    -0.013301791     0.531904286     1.502941050     2.783292675     0.047212491
H         0.124532063     0.065745081     0.203806318     0.925109552    -0.955806135     2.632334698
2
# Step: 8 Box:    3.0000    3.0000    3.0000
H        -0.150911956    -0.007743400     0.531808833     1.608063957     2.798000984    -0.152348927
H         0.126201765     0.063826225     0.209283719     0.754498864    -0.963368538     2.825688983
2
# Step: 9 Box:    3.0000    3.0000    3.0000
H        -0.147578062    -0.002162844     0.531387788     1.744896739     2.760240489    -0.305616955
H         0.127473679     0.061847404     0.215109828     0.513429015    -0.985043740     2.987374815
2
# Step: 10 Box:    3.0000    3.0000    3.0000
H        -0.143926042     0.003398303     0.530597807     1.923878021     2.828946580    -0.496806384
H         0.128298878     0.059817375     0.221329672     0.321861884    -1.045250624     3.205614382
