4
# Step: 0 Box:    8.0000    8.0000    8.0000 
H         1.936463323     0.271980547     0.633358664    -0.000007342    -0.000006547    -0.000014836
H         2.703417913     0.356080713     1.135126539    -0.000005769    -0.000006050    -0.000011021
H         3.133123904    -0.193907834     0.524560493    -0.000015094     0.000007431    -0.000000346
H         2.287877741    -0.593436061     0.171753868     0.000004231     0.000000113     0.000007503
4
# Step: 1 Box:    8.0000    8.0000    8.0000 
H         1.767056742     0.269789683     0.441837194    -0.000014091     0.000007556    -0.000009539
H         2.621601759     0.326794209     1.141480835    -0.000002576     0.000001290    -0.000004103
H         3.135526619    -0.161703126     0.437063242    -0.000011215     0.000005335     0.000000399
H         2.301763132    -0.643680574     0.261166539     0.000007339    -0.000018510    -0.000002781
4
# Step: 2 Box:    8.0000    8.0000    8.0000 
H         1.758558140     0.382042732     0.431845010     0.000003660     0.000007996    -0.000009259
H         2.435896278     0.352842109     1.078653450    -0.000018921     0.000003684     0.000011759
H         3.054194170    -0.113475870     0.378316141    -0.000008749     0.000002254    -0.000018373
H         2.378033497    -0.872208108     0.237303271     0.000007025    -0.000017514     0.000002626
4
# Step: 3 Box:    8.0000    8.0000    8.0000 
H         1.636683854     0.529165168     0.338226197    -0.000011347     0.000011366    -0.000012143
H         2.381650336     0.234024849     1.012148348    -0.000000873    -0.000013202    -0.000001931
H         2.966459918    -0.082164252     0.334758472    -0.000013035     0.000000046    -0.000004665
H         2.469198944    -0.968222570     0.306285391     0.000010156    -0.000001392     0.000006962
