ITEM: TIMESTEP
0
ITEM: NUMBER OF ATOMS
2
ITEM: BOX BOUNDS pp pp pp
0.0000000000000000e+00 3.0000000000000000e+01
0.0000000000000000e+00 3.0000000000000000e+01
0.0000000000000000e+00 3.0000000000000000e+01
ITEM: ATOMS id type x y z vx vy vz
1 1 6.35011 0 0 0 0 0
2 1 2.85000 0 0 0 0 0
