Title

2 atoms
0 bonds
0 angles
0 dihedrals
0 impropers

1 atom types
0 bond types
0 angle types
0 dihedral types
0 30 xlo xhi
0 30 ylo yhi
0 30 zlo zhi

Masses

1	1.007947


Pair Coeffs

1	5.9751434034	3.00

Atoms

1	1	1 0.000	6.000 0.000 0.000
2	1	1 0.000	3.330 0.000 0.000
