4
# Step: 0 Box:    8.0000    8.0000    8.0000 
H         1.882284851     0.794784942     0.553329811     0.000000431     0.000012830    -0.000005748
H         2.389237976     0.071386546     1.097939563     0.000001884    -0.000008477    -0.000009045
H         2.666494991    -0.384984821     0.260362997    -0.000023761    -0.000014680     0.000004055
H         1.785413423    -0.439059778     0.005647717     0.000002629    -0.000012079    -0.000007197
4
# Step: 1 Box:    8.0000    8.0000    8.0000 
H         1.981910280     0.800665013     0.474341409     0.000014519    -0.000008205    -0.000007306
H         2.295936221     0.047983497     1.091820651    -0.000005509    -0.000000119     0.000000363
H         2.633892185    -0.477532862     0.228287383    -0.000010385     0.000001691     0.000000442
H         1.617064592    -0.560738461    -0.062674617    -0.000015817    -0.000013839    -0.000009886
