4
# Step: 0 Box:    8.0000    8.0000    8.0000 
H         1.766930363     0.273815392     0.609278910     0.000002440     0.000000208     0.000001474
H         2.691437216     0.320307148     1.255596377    -0.000004018    -0.000014637     0.000001011
H         3.169858468    -0.470776781     0.631219002    -0.000011650    -0.000008104     0.000013498
H         2.319522588    -0.661665569     0.202318881     0.000003397    -0.000010402     0.000004316
4
# Step: 1 Box:    8.0000    8.0000    8.0000 
H         1.962412351     0.218715082     0.588879362     0.000018269    -0.000006935    -0.000013042
H         2.567654432     0.155806203     1.306502598    -0.000012194    -0.000012155     0.000019269
H         3.077313064    -0.465322547     0.722119532     0.000000744     0.000000879     0.000000036
H         2.245425414    -0.765589958     0.276950285    -0.000014889    -0.000008823     0.000010400
4
# Step: 2 Box:    8.0000    8.0000    8.0000 
H         1.984080226     0.325466333     0.511684218    -0.000000417     0.000015161    -0.000000500
H         2.530218377    -0.034535156     1.350751615    -0.000004633    -0.000007484     0.000005802
H         3.036184294    -0.506599534     0.817686375    -0.000014790    -0.000013719     0.000000946
H         2.222126624    -0.909387971     0.379917335     0.000012933    -0.000017095     0.000008013
4
# Step: 3 Box:    8.0000    8.0000    8.0000 
H         2.046456392     0.439753227     0.591234027     0.000007428     0.000008727     0.000006555
H         2.348766345    -0.020089587     1.388424918    -0.000003602    -0.000001110     0.000001656
H         3.037755860    -0.644947396     0.782259169    -0.000010949     0.000001572     0.000007528
H         2.272575359    -1.124416560     0.436577427     0.000001381    -0.000028423    -0.000003883
