ITEM: TIMESTEP
0
ITEM: NUMBER OF ATOMS
2
 ITEM: BOX BOUNDS xy xz yz pp pp pp
0.0 30.0
0.0 30.0
0.0 30.0
ITEM: ATOMS id type x y z vx vy vz
1 1 6.80352 29.8644 28.7886 -0.0305753 0.0139138 0.027125
2 1 5.29547 2.24426 0.590172 0.006926 -0.0187824 -0.018655
ITEM: TIMESTEP
0
ITEM: NUMBER OF ATOMS
2
 ITEM: BOX BOUNDS xy xz yz pp pp pp
0.0 30.0
0.0 30.0
0.0 30.0
ITEM: ATOMS id type x y z vx vy vz
1 1 6.86194 29.8403 28.7334 -0.0253467 0.0109369 0.0290148
2 1 5.27548 2.28325 0.63359 0.013091 -0.0202825 -0.0246959
ITEM: TIMESTEP
0
ITEM: NUMBER OF ATOMS
2
 ITEM: BOX BOUNDS xy xz yz pp pp pp
0.0 30.0
0.0 30.0
0.0 30.0
ITEM: ATOMS id type x y z vx vy vz
1 1 6.91028 29.8182 28.6786 -0.0226167 0.0114092 0.027038
2 1 5.25023 2.32736 0.684244 0.0146909 -0.0196305 -0.0239215
ITEM: TIMESTEP
0
ITEM: NUMBER OF ATOMS
2
 ITEM: BOX BOUNDS xy xz yz pp pp pp
0.0 30.0
0.0 30.0
0.0 30.0
ITEM: ATOMS id type x y z vx vy vz
1 1 6.95124 29.7945 28.6258 -0.0188553 0.0105683 0.0243854
2 1 5.22008 2.36402 0.731634 0.0163659 -0.0154873 -0.0207764
ITEM: TIMESTEP
0
ITEM: NUMBER OF ATOMS
2
 ITEM: BOX BOUNDS xy xz yz pp pp pp
0.0 30.0
0.0 30.0
0.0 30.0
ITEM: ATOMS id type x y z vx vy vz
1 1 6.98576 29.7769 28.5822 -0.0186169 0.0057936 0.018795
2 1 5.18457 2.39245 0.769186 0.0167633 -0.0142462 -0.017708
ITEM: TIMESTEP
0
ITEM: NUMBER OF ATOMS
2
 ITEM: BOX BOUNDS xy xz yz pp pp pp
0.0 30.0
0.0 30.0
0.0 30.0
ITEM: ATOMS id type x y z vx vy vz
1 1 7.01567 29.772 28.5469 -0.0106092 0.002399 0.0174787
2 1 5.15145 2.41936 0.801822 0.0166461 -0.0123436 -0.0142792
ITEM: TIMESTEP
0
ITEM: NUMBER OF ATOMS
2
 ITEM: BOX BOUNDS xy xz yz pp pp pp
0.0 30.0
0.0 30.0
0.0 30.0
ITEM: ATOMS id type x y z vx vy vz
1 1 7.03564 29.7644 28.5145 -0.00944288 0.00327252 0.0164171
2 1 5.12205 2.44393 0.825806 0.0134994 -0.00815936 -0.0121189
ITEM: TIMESTEP
0
ITEM: NUMBER OF ATOMS
2
 ITEM: BOX BOUNDS xy xz yz pp pp pp
0.0 30.0
0.0 30.0
0.0 30.0
ITEM: ATOMS id type x y z vx vy vz
1 1 7.05781 29.7591 28.4774 -0.0103702 0.00262919 0.0188776
2 1 5.0952 2.45505 0.853327 0.0122639 -0.00284943 -0.0144227
ITEM: TIMESTEP
0
ITEM: NUMBER OF ATOMS
2
 ITEM: BOX BOUNDS xy xz yz pp pp pp
0.0 30.0
0.0 30.0
0.0 30.0
ITEM: ATOMS id type x y z vx vy vz
1 1 7.07377 29.7544 28.4403 -0.00650977 -0.00108623 0.0186739
2 1 5.07061 2.46074 0.877035 0.0130625 -0.00365446 -0.011135
ITEM: TIMESTEP
0
ITEM: NUMBER OF ATOMS
2
 ITEM: BOX BOUNDS xy xz yz pp pp pp
0.0 30.0
0.0 30.0
0.0 30.0
ITEM: ATOMS id type x y z vx vy vz
1 1 7.0856 29.7563 28.4041 -0.00420101 5.93462e-05 0.0172686
2 1 5.0477 2.46513 0.898981 0.0118918 -0.00421657 -0.012205
ITEM: TIMESTEP
0
ITEM: NUMBER OF ATOMS
2
 ITEM: BOX BOUNDS xy xz yz pp pp pp
0.0 30.0
0.0 30.0
0.0 30.0
ITEM: ATOMS id type x y z vx vy vz
1 1 7.09699 29.7641 28.3703 -0.00845545 -0.00762515 0.0177775
2 1 5.02639 2.47152 0.928258 0.0122324 -0.00237788 -0.0148905
ITEM: TIMESTEP
0
ITEM: NUMBER OF ATOMS
2
 ITEM: BOX BOUNDS xy xz yz pp pp pp
0.0 30.0
0.0 30.0
0.0 30.0
ITEM: ATOMS id type x y z vx vy vz
1 1 7.1152 29.7836 28.3378 -0.0108115 -0.0089248 0.0148519
2 1 5.00245 2.47433 0.959806 0.00800591 -0.0004791 -0.0137007
ITEM: TIMESTEP
0
ITEM: NUMBER OF ATOMS
2
 ITEM: BOX BOUNDS xy xz yz pp pp pp
0.0 30.0
0.0 30.0
0.0 30.0
ITEM: ATOMS id type x y z vx vy vz
1 1 7.13209 29.8009 28.3133 -0.00666261 -0.00657882 0.00986968
2 1 4.98965 2.47171 0.988076 0.00276009 0.0037435 -0.0126522
ITEM: TIMESTEP
0
ITEM: NUMBER OF ATOMS
2
 ITEM: BOX BOUNDS xy xz yz pp pp pp
0.0 30.0
0.0 30.0
0.0 30.0
ITEM: ATOMS id type x y z vx vy vz
1 1 7.14701 29.8161 28.2966 -0.00605253 -0.00903907 0.00792554
2 1 4.99187 2.46349 1.00463 -0.00290555 0.00510288 -0.00635875
ITEM: TIMESTEP
0
ITEM: NUMBER OF ATOMS
2
 ITEM: BOX BOUNDS xy xz yz pp pp pp
0.0 30.0
0.0 30.0
0.0 30.0
ITEM: ATOMS id type x y z vx vy vz
1 1 7.15254 29.8351 28.28 -0.00121584 -0.00952304 0.0053934
2 1 4.99662 2.45136 1.02331 -0.00486802 0.00678817 -0.00953849
ITEM: TIMESTEP
0
ITEM: NUMBER OF ATOMS
2
 ITEM: BOX BOUNDS xy xz yz pp pp pp
0.0 30.0
0.0 30.0
0.0 30.0
ITEM: ATOMS id type x y z vx vy vz
1 1 7.15457 29.8506 28.2714 0.00105546 -0.00692546 0.00341394
2 1 5.00309 2.43948 1.03537 -0.00288561 0.00468868 -0.00448467
ITEM: TIMESTEP
0
ITEM: NUMBER OF ATOMS
2
 ITEM: BOX BOUNDS xy xz yz pp pp pp
0.0 30.0
0.0 30.0
0.0 30.0
ITEM: ATOMS id type x y z vx vy vz
1 1 7.14338 29.8635 28.2648 0.00954996 -0.00665215 0.00565658
2 1 5.00597 2.42373 1.04766 -0.000245088 0.00976247 -0.00868843
ITEM: TIMESTEP
0
ITEM: NUMBER OF ATOMS
2
 ITEM: BOX BOUNDS xy xz yz pp pp pp
0.0 30.0
0.0 30.0
0.0 30.0
ITEM: ATOMS id type x y z vx vy vz
1 1 7.12461 29.8825 28.2529 0.00730946 -0.0115127 0.00762173
2 1 5.01261 2.40022 1.06084 -0.00300809 0.0131339 -0.00501418
ITEM: TIMESTEP
0
ITEM: NUMBER OF ATOMS
2
 ITEM: BOX BOUNDS xy xz yz pp pp pp
0.0 30.0
0.0 30.0
0.0 30.0
ITEM: ATOMS id type x y z vx vy vz
1 1 7.1055 29.9089 28.2399 0.0113827 -0.0151775 0.00490492
2 1 5.02514 2.36911 1.07209 -0.0113827 0.0151775 -0.00490492
ITEM: TIMESTEP
0
ITEM: NUMBER OF ATOMS
2
 ITEM: BOX BOUNDS xy xz yz pp pp pp
0.0 30.0
0.0 30.0
0.0 30.0
ITEM: ATOMS id type x y z vx vy vz
1 1 7.08335 29.9466 28.2325 -0.0107211 0.0211863 -0.00197232
2 1 5.05011 2.33969 1.08514 0.0134869 -0.0175634 0.00583336
ITEM: TIMESTEP
0
ITEM: NUMBER OF ATOMS
2
 ITEM: BOX BOUNDS xy xz yz pp pp pp
0.0 30.0
0.0 30.0
0.0 30.0
ITEM: ATOMS id type x y z vx vy vz
1 1 7.06442 29.9852 28.2251 -0.0114057 0.0164161 -0.00257829
2 1 5.08373 2.29806 1.09038 0.0183222 -0.0224305 0.000593729
ITEM: TIMESTEP
0
ITEM: NUMBER OF ATOMS
2
 ITEM: BOX BOUNDS xy xz yz pp pp pp
0.0 30.0
0.0 30.0
0.0 30.0
ITEM: ATOMS id type x y z vx vy vz
1 1 7.03855 0.0221516 28.2186 -0.0134866 0.0204545 -0.00346998
2 1 5.12598 2.25222 1.09344 0.0209549 -0.0222319 0.00096048
ITEM: TIMESTEP
0
ITEM: NUMBER OF ATOMS
2
 ITEM: BOX BOUNDS xy xz yz pp pp pp
0.0 30.0
0.0 30.0
0.0 30.0
ITEM: ATOMS id type x y z vx vy vz
1 1 7.00917 0.0620111 28.2226 -0.0149976 0.02131 0.00579331
2 1 5.1683 2.20786 1.09316 0.022585 -0.0243863 -0.00316469
ITEM: TIMESTEP
0
ITEM: NUMBER OF ATOMS
2
 ITEM: BOX BOUNDS xy xz yz pp pp pp
0.0 30.0
0.0 30.0
0.0 30.0
ITEM: ATOMS id type x y z vx vy vz
1 1 6.97703 0.105045 28.2383 -0.0164392 0.0211133 0.00808841
2 1 5.21486 2.15749 1.08494 0.0213852 -0.0255104 -0.00842368
ITEM: TIMESTEP
0
ITEM: NUMBER OF ATOMS
2
 ITEM: BOX BOUNDS xy xz yz pp pp pp
0.0 30.0
0.0 30.0
0.0 30.0
ITEM: ATOMS id type x y z vx vy vz
1 1 6.94444 0.149872 28.2642 -0.018011 0.021363 0.0163723
2 1 5.25477 2.10358 1.06589 0.0194832 -0.0274817 -0.0125944
ITEM: TIMESTEP
0
ITEM: NUMBER OF ATOMS
2
 ITEM: BOX BOUNDS xy xz yz pp pp pp
0.0 30.0
0.0 30.0
0.0 30.0
ITEM: ATOMS id type x y z vx vy vz
1 1 6.90225 0.198892 28.2983 -0.0232186 0.0269749 0.0189191
2 1 5.29332 2.0476 1.0371 0.0194966 -0.0302919 -0.0137763
ITEM: TIMESTEP
0
ITEM: NUMBER OF ATOMS
2
 ITEM: BOX BOUNDS xy xz yz pp pp pp
0.0 30.0
0.0 30.0
0.0 30.0
ITEM: ATOMS id type x y z vx vy vz
1 1 6.85267 0.246243 28.3347 -0.0234627 0.0224006 0.0165068
2 1 5.32841 1.98777 1.00106 0.0165564 -0.030658 -0.0178626
ITEM: TIMESTEP
0
ITEM: NUMBER OF ATOMS
2
 ITEM: BOX BOUNDS xy xz yz pp pp pp
0.0 30.0
0.0 30.0
0.0 30.0
ITEM: ATOMS id type x y z vx vy vz
1 1 6.80564 0.293655 28.3705 -0.0248488 0.0236586 0.0172387
2 1 5.36666 1.92633 0.969184 0.0196366 -0.0304391 -0.0137237
