ITEM: TIMESTEP
0
ITEM: NUMBER OF ATOMS
2
 ITEM: BOX BOUNDS xy xz yz pp pp pp
0.0 30.0
0.0 30.0
0.0 30.0
ITEM: ATOMS id type x y z vx vy vz
1 1 5.71285 29.7106 1.23549 -0.0126342 0.00102019 -0.0249103
2 1 4.0557 0.714777 28.4928 0.0115849 0.00737039 0.0265918
ITEM: TIMESTEP
0
ITEM: NUMBER OF ATOMS
2
 ITEM: BOX BOUNDS xy xz yz pp pp pp
0.0 30.0
0.0 30.0
0.0 30.0
ITEM: ATOMS id type x y z vx vy vz
1 1 5.73034 29.7053 1.28212 -0.00517577 0.00352843 -0.0222403
2 1 4.04121 0.707254 28.4372 0.00428084 0.00302501 0.0274791
ITEM: TIMESTEP
0
ITEM: NUMBER OF ATOMS
2
 ITEM: BOX BOUNDS xy xz yz pp pp pp
0.0 30.0
0.0 30.0
0.0 30.0
ITEM: ATOMS id type x y z vx vy vz
1 1 5.74114 29.6959 1.32282 -0.00683925 0.00346256 -0.0226638
2 1 4.02975 0.704734 28.3804 0.00875594 -0.000795435 0.0272104
ITEM: TIMESTEP
0
ITEM: NUMBER OF ATOMS
2
 ITEM: BOX BOUNDS xy xz yz pp pp pp
0.0 30.0
0.0 30.0
0.0 30.0
ITEM: ATOMS id type x y z vx vy vz
1 1 5.75504 29.6822 1.36652 -0.00664146 0.0117606 -0.0187518
2 1 4.0109 0.706325 28.3284 0.00726709 8.75698e-05 0.0229506
ITEM: TIMESTEP
0
ITEM: NUMBER OF ATOMS
2
 ITEM: BOX BOUNDS xy xz yz pp pp pp
0.0 30.0
0.0 30.0
0.0 30.0
ITEM: ATOMS id type x y z vx vy vz
1 1 5.77235 29.6652 1.40037 -0.00818359 0.00575812 -0.0166967
2 1 3.99856 0.704464 28.2825 0.00682989 0.00279016 0.0212246
ITEM: TIMESTEP
0
ITEM: NUMBER OF ATOMS
2
 ITEM: BOX BOUNDS xy xz yz pp pp pp
0.0 30.0
0.0 30.0
0.0 30.0
ITEM: ATOMS id type x y z vx vy vz
1 1 5.78927 29.6541 1.43184 -0.00770893 0.00515089 -0.0134279
2 1 3.98368 0.701424 28.2421 0.00769415 -0.000631674 0.0175452
ITEM: TIMESTEP
0
ITEM: NUMBER OF ATOMS
2
 ITEM: BOX BOUNDS xy xz yz pp pp pp
0.0 30.0
0.0 30.0
0.0 30.0
ITEM: ATOMS id type x y z vx vy vz
1 1 5.80479 29.6457 1.45899 -0.00498875 0.00587 -0.01176
2 1 3.9733 0.711421 28.2109 0.00498875 -0.00587 0.01176
ITEM: TIMESTEP
0
ITEM: NUMBER OF ATOMS
2
 ITEM: BOX BOUNDS xy xz yz pp pp pp
0.0 30.0
0.0 30.0
0.0 30.0
ITEM: ATOMS id type x y z vx vy vz
1 1 5.80877 29.6349 1.47845 -0.000724372 -0.00513001 0.0077556
2 1 3.96789 0.718071 28.1927 -0.000924423 0.00115317 -0.00681138
ITEM: TIMESTEP
0
ITEM: NUMBER OF ATOMS
2
 ITEM: BOX BOUNDS xy xz yz pp pp pp
0.0 30.0
0.0 30.0
0.0 30.0
ITEM: ATOMS id type x y z vx vy vz
1 1 5.79997 29.6234 1.49111 -0.00763868 -0.00784587 0.00648186
2 1 3.96602 0.723223 28.1816 0.00041711 0.00366097 -0.00500584
ITEM: TIMESTEP
0
ITEM: NUMBER OF ATOMS
2
 ITEM: BOX BOUNDS xy xz yz pp pp pp
0.0 30.0
0.0 30.0
0.0 30.0
ITEM: ATOMS id type x y z vx vy vz
1 1 5.77952 29.6122 1.50267 -0.0121685 -0.00415802 0.00530853
2 1 3.96769 0.733144 28.1689 -0.00142047 0.0027893 -0.00702945
ITEM: TIMESTEP
0
ITEM: NUMBER OF ATOMS
2
 ITEM: BOX BOUNDS xy xz yz pp pp pp
0.0 30.0
0.0 30.0
0.0 30.0
ITEM: ATOMS id type x y z vx vy vz
1 1 5.75134 29.6067 1.50924 -0.016073 -0.00297449 0.00391784
2 1 3.9659 0.736635 28.1574 0.000377927 -0.000706817 -0.00332906
ITEM: TIMESTEP
0
ITEM: NUMBER OF ATOMS
2
 ITEM: BOX BOUNDS xy xz yz pp pp pp
0.0 30.0
0.0 30.0
0.0 30.0
ITEM: ATOMS id type x y z vx vy vz
1 1 5.71801 29.6041 1.51417 -0.0166495 0.00142888 0.00190008
2 1 3.96739 0.737114 28.1582 0.00202894 -0.00123399 0.0038144
ITEM: TIMESTEP
0
ITEM: NUMBER OF ATOMS
2
 ITEM: BOX BOUNDS xy xz yz pp pp pp
0.0 30.0
0.0 30.0
0.0 30.0
ITEM: ATOMS id type x y z vx vy vz
1 1 5.69047 29.6126 1.51194 -0.0124883 0.00855015 -0.00289438
2 1 3.96833 0.734426 28.1713 3.26526e-05 -0.00266181 0.00661455
ITEM: TIMESTEP
0
ITEM: NUMBER OF ATOMS
2
 ITEM: BOX BOUNDS xy xz yz pp pp pp
0.0 30.0
0.0 30.0
0.0 30.0
ITEM: ATOMS id type x y z vx vy vz
1 1 5.66208 29.6278 1.50641 -0.0151495 0.00481634 -0.00245453
2 1 3.96986 0.728822 28.1883 0.000329517 -0.00229415 0.00907215
ITEM: TIMESTEP
0
ITEM: NUMBER OF ATOMS
2
 ITEM: BOX BOUNDS xy xz yz pp pp pp
0.0 30.0
0.0 30.0
0.0 30.0
ITEM: ATOMS id type x y z vx vy vz
1 1 5.63209 29.6331 1.50079 -0.0149863 0.00151721 -0.0056037
2 1 3.97473 0.724606 28.2075 0.00734317 -0.00380294 0.011118
ITEM: TIMESTEP
0
ITEM: NUMBER OF ATOMS
2
 ITEM: BOX BOUNDS xy xz yz pp pp pp
0.0 30.0
0.0 30.0
0.0 30.0
ITEM: ATOMS id type x y z vx vy vz
1 1 5.59927 29.6344 1.4878 -0.0180392 0.00132074 -0.00392217
2 1 3.98677 0.717969 28.2263 0.0064587 -0.00338286 0.0114087
ITEM: TIMESTEP
0
ITEM: NUMBER OF ATOMS
2
 ITEM: BOX BOUNDS xy xz yz pp pp pp
0.0 30.0
0.0 30.0
0.0 30.0
ITEM: ATOMS id type x y z vx vy vz
1 1 5.56601 29.6369 1.47543 -0.0172222 0.00439735 -0.00824388
2 1 3.99948 0.715693 28.2497 0.00563906 -0.00225556 0.0117045
ITEM: TIMESTEP
0
ITEM: NUMBER OF ATOMS
2
 ITEM: BOX BOUNDS xy xz yz pp pp pp
0.0 30.0
0.0 30.0
0.0 30.0
ITEM: ATOMS id type x y z vx vy vz
1 1 5.52893 29.639 1.46058 -0.0206034 -0.00281484 -0.00675849
2 1 4.01553 0.713231 28.2784 0.0103277 0.00153719 0.0164258
ITEM: TIMESTEP
0
ITEM: NUMBER OF ATOMS
2
 ITEM: BOX BOUNDS xy xz yz pp pp pp
0.0 30.0
0.0 30.0
0.0 30.0
ITEM: ATOMS id type x y z vx vy vz
1 1 5.48498 29.6334 1.44267 -0.0239961 -0.00273564 -0.0104778
2 1 4.04348 0.714438 28.3117 0.0153848 0.00212206 0.0172753
ITEM: TIMESTEP
0
ITEM: NUMBER OF ATOMS
2
 ITEM: BOX BOUNDS xy xz yz pp pp pp
0.0 30.0
0.0 30.0
0.0 30.0
ITEM: ATOMS id type x y z vx vy vz
1 1 5.4376 29.6272 1.41875 -0.0247424 -0.00371787 -0.0133446
2 1 4.07875 0.716846 28.3456 0.0182587 0.000982766 0.0183613
ITEM: TIMESTEP
0
ITEM: NUMBER OF ATOMS
2
 ITEM: BOX BOUNDS xy xz yz pp pp pp
0.0 30.0
0.0 30.0
0.0 30.0
ITEM: ATOMS id type x y z vx vy vz
1 1 5.38346 29.6196 1.38758 -0.0284113 -0.00470901 -0.0160505
2 1 4.11326 0.711583 28.3842 0.0175681 -0.00691316 0.0202984
