1
# Step: 0 Box:       inf    0.0000    0.0000 
H        -0.348883404     0.000000000     0.000000000     0.381784005    -0.073541178     0.272727167
1
# Step: 1 Box:       inf    0.0000    0.0000 
H        -0.339896906     0.000000000     0.000000000     0.329658108    -0.073541178     0.272727167
1
# Step: 2 Box:       inf    0.0000    0.0000 
H        -0.331730817     0.000000000     0.000000000     0.329673500    -0.073541178     0.272727167
1
# Step: 3 Box:       inf    0.0000    0.0000 
H        -0.323828708     0.000000000     0.000000000     0.300912453    -0.073541178     0.272727167
1
# Step: 4 Box:       inf    0.0000    0.0000 
H        -0.317220099     0.000000000     0.000000000     0.228862399    -0.073541178     0.272727167
1
# Step: 5 Box:       inf    0.0000    0.0000 
H        -0.311742178     0.000000000     0.000000000     0.241211203    -0.073541178     0.272727167
1
# Step: 6 Box:       inf    0.0000    0.0000 
H        -0.306321074     0.000000000     0.000000000     0.209014928    -0.073541178     0.272727167
1
# Step: 7 Box:       inf    0.0000    0.0000 
H        -0.301175685     0.000000000     0.000000000     0.177473129    -0.073541178     0.272727167
1
# Step: 8 Box:       inf    0.0000    0.0000 
H        -0.297343833     0.000000000     0.000000000     0.135520040    -0.073541178     0.272727167
1
# Step: 9 Box:       inf    0.0000    0.0000 
H        -0.294921779     0.000000000     0.000000000     0.093077896    -0.073541178     0.272727167
1
# Step: 10 Box:       inf    0.0000    0.0000 
H        -0.293086865     0.000000000     0.000000000     0.074697556    -0.073541178     0.272727167
1
# Step: 11 Box:       inf    0.0000    0.0000 
H        -0.291638313     0.000000000     0.000000000     0.008655455    -0.073541178     0.272727167
1
# Step: 12 Box:       inf    0.0000    0.0000 
H        -0.291955706     0.000000000     0.000000000    -0.025171066    -0.073541178     0.272727167
1
# Step: 13 Box:       inf    0.0000    0.0000 
H        -0.292439253     0.000000000     0.000000000    -0.015497249    -0.073541178     0.272727167
1
# Step: 14 Box:       inf    0.0000    0.0000 
H        -0.293391924     0.000000000     0.000000000    -0.055851500    -0.073541178     0.272727167
1
# Step: 15 Box:       inf    0.0000    0.0000 
H        -0.294350259     0.000000000     0.000000000    -0.018090718    -0.073541178     0.272727167
1
# Step: 16 Box:       inf    0.0000    0.0000 
H        -0.294820097     0.000000000     0.000000000     0.008055967    -0.073541178     0.272727167
1
# Step: 17 Box:       inf    0.0000    0.0000 
H        -0.293892994     0.000000000     0.000000000     0.052172925    -0.073541178     0.272727167
1
# Step: 18 Box:       inf    0.0000    0.0000 
H        -0.292662265     0.000000000     0.000000000     0.034297025    -0.073541178     0.272727167
1
# Step: 19 Box:       inf    0.0000    0.0000 
H        -0.292315694     0.000000000     0.000000000    -0.006047590    -0.073541178     0.272727167
1
# Step: 20 Box:       inf    0.0000    0.0000 
H        -0.292435351     0.000000000     0.000000000    -0.015359858    -0.073541178     0.272727167
1
# Step: 21 Box:       inf    0.0000    0.0000 
H        -0.292447396     0.000000000     0.000000000    -0.003265976    -0.073541178     0.272727167
1
# Step: 22 Box:       inf    0.0000    0.0000 
H        -0.292490821     0.000000000     0.000000000    -0.026142484    -0.073541178     0.272727167
1
# Step: 23 Box:       inf    0.0000    0.0000 
H        -0.293457504     0.000000000     0.000000000    -0.051074224    -0.073541178     0.272727167
1
# Step: 24 Box:       inf    0.0000    0.0000 
H        -0.295811135     0.000000000     0.000000000    -0.126911281    -0.073541178     0.272727167
1
# Step: 25 Box:       inf    0.0000    0.0000 
H        -0.298844535     0.000000000     0.000000000    -0.138401489    -0.073541178     0.272727167
1
# Step: 26 Box:       inf    0.0000    0.0000 
H        -0.302656372     0.000000000     0.000000000    -0.157717425    -0.073541178     0.272727167
1
# Step: 27 Box:       inf    0.0000    0.0000 
H        -0.306610148     0.000000000     0.000000000    -0.175208820    -0.073541178     0.272727167
1
# Step: 28 Box:       inf    0.0000    0.0000 
H        -0.310758905     0.000000000     0.000000000    -0.164528078    -0.073541178     0.272727167
1
# Step: 29 Box:       inf    0.0000    0.0000 
H        -0.314426859     0.000000000     0.000000000    -0.147328365    -0.073541178     0.272727167
1
# Step: 30 Box:       inf    0.0000    0.0000 
H        -0.317807191     0.000000000     0.000000000    -0.106998868    -0.073541178     0.272727167
1
# Step: 31 Box:       inf    0.0000    0.0000 
H        -0.321091125     0.000000000     0.000000000    -0.105560327    -0.073541178     0.272727167
1
# Step: 32 Box:       inf    0.0000    0.0000 
H        -0.323965427     0.000000000     0.000000000    -0.121267832    -0.073541178     0.272727167
1
# Step: 33 Box:       inf    0.0000    0.0000 
H        -0.327715049     0.000000000     0.000000000    -0.137038474    -0.073541178     0.272727167
1
# Step: 34 Box:       inf    0.0000    0.0000 
H        -0.332243122     0.000000000     0.000000000    -0.223810288    -0.073541178     0.272727167
1
# Step: 35 Box:       inf    0.0000    0.0000 
H        -0.338094352     0.000000000     0.000000000    -0.255288854    -0.073541178     0.272727167
1
# Step: 36 Box:       inf    0.0000    0.0000 
H        -0.344435441     0.000000000     0.000000000    -0.244804048    -0.073541178     0.272727167
1
# Step: 37 Box:       inf    0.0000    0.0000 
H        -0.351468242     0.000000000     0.000000000    -0.288257839    -0.073541178     0.272727167
1
# Step: 38 Box:       inf    0.0000    0.0000 
H        -0.358853033     0.000000000     0.000000000    -0.328964477    -0.073541178     0.272727167
1
# Step: 39 Box:       inf    0.0000    0.0000 
H        -0.366998390     0.000000000     0.000000000    -0.332068768    -0.073541178     0.272727167
1
# Step: 40 Box:       inf    0.0000    0.0000 
H        -0.375344761     0.000000000     0.000000000    -0.354042428    -0.073541178     0.272727167
1
# Step: 41 Box:       inf    0.0000    0.0000 
H        -0.384246415     0.000000000     0.000000000    -0.366215557    -0.073541178     0.272727167
1
# Step: 42 Box:       inf    0.0000    0.0000 
H        -0.394068932     0.000000000     0.000000000    -0.437492944    -0.073541178     0.272727167
1
# Step: 43 Box:       inf    0.0000    0.0000 
H        -0.405815875     0.000000000     0.000000000    -0.459967832    -0.073541178     0.272727167
