1
# Step: 0 Box:       inf    0.0000    0.0000 
H        -0.348883404     0.000000000     0.000000000    -0.381784005     0.073541178    -0.272727167
1
# Step: 1 Box:       inf    0.0000    0.0000 
H        -0.359302455     0.000000000     0.000000000    -0.460078658     0.073541178    -0.272727167
1
# Step: 2 Box:       inf    0.0000    0.0000 
H        -0.370821010     0.000000000     0.000000000    -0.475645585     0.073541178    -0.272727167
1
# Step: 3 Box:       inf    0.0000    0.0000 
H        -0.383187133     0.000000000     0.000000000    -0.529902639     0.073541178    -0.272727167
1
# Step: 4 Box:       inf    0.0000    0.0000 
H        -0.396193981     0.000000000     0.000000000    -0.550810808     0.073541178    -0.272727167
1
# Step: 5 Box:       inf    0.0000    0.0000 
H        -0.409895394     0.000000000     0.000000000    -0.561455163     0.073541178    -0.272727167
