2
# Step: 0 Box:    3.0000    3.0000    3.0000
H         0.008234255    -0.049011646     0.113651929     3.853030833    -2.391197615    -0.132720495
H         0.356855593     0.058245209     0.015748516    -0.146405570     0.649086956    -0.932051964
2
# Step: 1 Box:    3.0000    3.0000    3.0000
H         0.016317050    -0.053636525     0.113289380     4.241586452    -2.267168976    -0.243192052
H         0.356206906     0.059455191     0.013942205    -0.502759843     0.528764147    -0.876871768
2
# Step: 2 Box:    3.0000    3.0000    3.0000
H         0.025132988    -0.057992168     0.112699491     4.578924748    -2.100936001    -0.364284734
H         0.354859195     0.060384060     0.012215076    -0.849434171     0.407984836    -0.824511889
2
# Step: 3 Box:    3.0000    3.0000    3.0000
H         0.034607397    -0.062059999     0.111852727     4.892830837    -1.973225201    -0.483550771
H         0.352857879     0.061134882     0.010699151    -1.149765260     0.320117512    -0.692852668
2
# Step: 4 Box:    3.0000    3.0000    3.0000
H         0.044708140    -0.065859923     0.110751777     5.187928911    -1.861967558    -0.627644542
H         0.350251684     0.061645025     0.009408910    -1.410739773     0.210418018    -0.621367754
2
# Step: 5 Box:    3.0000    3.0000    3.0000
H         0.055137017    -0.069509519     0.109415167     5.231049586    -1.812230712    -0.667547014
H         0.347306688     0.062016122     0.008255637    -1.515927014     0.165199731    -0.564944080
