4
# Step: 0 Box:    8.0000    8.0000    8.0000 
H         2.769237186     0.084989256    -0.342340277     0.000443175     0.000199088     0.000863625
H         2.265748289     0.711696232     0.246934870    -0.000792433    -0.000127397    -0.000108655
H         2.414700590     0.073537039     1.004057374     0.000720776    -0.000194478    -0.000024532
H         1.785278561    -0.465598352     0.655445407    -0.000371518     0.000122787    -0.000730438
4
# Step: 1 Box:    8.0000    8.0000    8.0000 
H         2.814018543     0.112093633    -0.283146214     0.000351460     0.000324957     0.000145797
H         2.230616588     0.697394317     0.271238616     0.000278629     0.000121860     0.000386110
H         2.477081615     0.117058782     0.997067029    -0.000923541    -0.000177666    -0.000636004
H         1.713247880    -0.521922558     0.578937943     0.000293452    -0.000269152     0.000104097
4
# Step: 2 Box:    8.0000    8.0000    8.0000 
H         2.845972706     0.160182725    -0.304506336     0.000285577     0.000511963    -0.000484558
H         2.276453811     0.749596425     0.253705163     0.000379456     0.000272137    -0.000314415
H         2.345265138     0.047272291     1.016938022    -0.000369297     0.000169340     0.001365133
H         1.767272972    -0.552427266     0.597960526    -0.000295737    -0.000953440    -0.000566159
4
# Step: 3 Box:    8.0000    8.0000    8.0000 
H         2.883554707     0.192659944    -0.347344296     0.000263991     0.000045370     0.000115677
H         2.297218352     0.732131068     0.305358449    -0.000051812     0.000027157     0.000607813
H         2.306252723     0.110286512     1.066673782    -0.000857750    -0.000434367    -0.000877863
H         1.747938844    -0.630453348     0.539409439     0.000645571     0.000361840     0.000154374
4
# Step: 4 Box:    8.0000    8.0000    8.0000 
H         2.876436071     0.196550651    -0.255958407    -0.000160912    -0.000021838     0.001099268
H         2.271476259     0.755650836     0.274869605    -0.000460838    -0.000175962    -0.000300051
H         2.285604980     0.033359939     1.043715528     0.000840576     0.000400878     0.000600560
H         1.801447316    -0.580937251     0.501470648    -0.000218826    -0.000203078    -0.001399777
4
# Step: 5 Box:    8.0000    8.0000    8.0000 
H         2.892593807     0.169970152    -0.176509373     0.000209178    -0.000187544     0.000450356
H         2.208416521     0.722749558     0.337242340    -0.000402499     0.000087788     0.000461031
H         2.322411107     0.090706058     1.003925538    -0.000618944    -0.000589448    -0.000959316
H         1.811543191    -0.578801593     0.399438870     0.000812264     0.000689203     0.000047929
4
# Step: 6 Box:    8.0000    8.0000    8.0000 
H         2.886652721     0.206725667    -0.151974492     0.000057355     0.000569712    -0.000230923
H         2.225783894     0.742342401     0.298170434     0.000467432    -0.000140491    -0.000013220
H         2.252684642     0.014698505     1.053232915    -0.000526824     0.000348149     0.001215578
H         1.869843370    -0.559142398     0.364668516     0.000002037    -0.000777370    -0.000971434
4
# Step: 7 Box:    8.0000    8.0000    8.0000 
H         2.938132406     0.232613906    -0.203261409     0.000308746     0.000203385    -0.000087353
H         2.246661485     0.756925176     0.399994906     0.000251120     0.000731924     0.000455912
H         2.162123991     0.050463540     1.027710243    -0.000966330    -0.000761012    -0.000874928
H         1.888046743    -0.635378447     0.339653634     0.000406464    -0.000174297     0.000506369
