ITEM: TIMESTEP
0
ITEM: NUMBER OF ATOMS
2
 ITEM: BOX BOUNDS xy xz yz pp pp pp
0.0 30.0
0.0 30.0
0.0 30.0
ITEM: ATOMS id type x y z vx vy vz
1 1 5.79434 0.470266 0.929744 -0.0353137 0.0274278 -0.0286187
2 1 3.53039 0.0904623 28.5411 0.00561697 -0.0247945 0.0373228
ITEM: TIMESTEP
0
ITEM: NUMBER OF ATOMS
2
 ITEM: BOX BOUNDS xy xz yz pp pp pp
0.0 30.0
0.0 30.0
0.0 30.0
ITEM: ATOMS id type x y z vx vy vz
1 1 5.8621 0.413742 0.988021 -0.033098 0.0300713 -0.0293961
2 1 3.51942 0.136719 28.4655 0.00612384 -0.0218731 0.0379424
ITEM: TIMESTEP
0
ITEM: NUMBER OF ATOMS
2
 ITEM: BOX BOUNDS xy xz yz pp pp pp
0.0 30.0
0.0 30.0
0.0 30.0
ITEM: ATOMS id type x y z vx vy vz
1 1 5.92566 0.354503 1.04452 -0.0300182 0.0323867 -0.0270438
2 1 3.50798 0.181461 28.397 0.00544988 -0.0228629 0.0315553
ITEM: TIMESTEP
0
ITEM: NUMBER OF ATOMS
2
 ITEM: BOX BOUNDS xy xz yz pp pp pp
0.0 30.0
0.0 30.0
0.0 30.0
ITEM: ATOMS id type x y z vx vy vz
1 1 5.98379 0.285998 1.09101 -0.0272225 0.0341798 -0.0190121
2 1 3.50039 0.227842 28.3377 0.00230055 -0.0220091 0.027863
ITEM: TIMESTEP
0
ITEM: NUMBER OF ATOMS
2
 ITEM: BOX BOUNDS xy xz yz pp pp pp
0.0 30.0
0.0 30.0
0.0 30.0
ITEM: ATOMS id type x y z vx vy vz
1 1 6.03193 0.22314 1.121 -0.0216105 0.0306701 -0.0127105
2 1 3.4962 0.267235 28.2854 0.00187583 -0.0185121 0.0264278
ITEM: TIMESTEP
0
ITEM: NUMBER OF ATOMS
2
 ITEM: BOX BOUNDS xy xz yz pp pp pp
0.0 30.0
0.0 30.0
0.0 30.0
ITEM: ATOMS id type x y z vx vy vz
1 1 6.06683 0.158526 1.14831 -0.0133486 0.0323934 -0.0141774
2 1 3.49795 0.302511 28.2318 -0.00201692 -0.016436 0.0250401
ITEM: TIMESTEP
0
ITEM: NUMBER OF ATOMS
2
 ITEM: BOX BOUNDS xy xz yz pp pp pp
0.0 30.0
0.0 30.0
0.0 30.0
ITEM: ATOMS id type x y z vx vy vz
1 1 6.08761 0.0927519 1.17493 -0.00994248 0.0357972 -0.0148236
2 1 3.50756 0.334621 28.1811 -0.00922418 -0.0145898 0.0242562
ITEM: TIMESTEP
0
ITEM: NUMBER OF ATOMS
2
 ITEM: BOX BOUNDS xy xz yz pp pp pp
0.0 30.0
0.0 30.0
0.0 30.0
ITEM: ATOMS id type x y z vx vy vz
1 1 6.10527 0.0204902 1.20533 -0.00706407 0.0344855 -0.0118538
2 1 3.53073 0.36317 28.1362 -0.012845 -0.0112331 0.0212159
ITEM: TIMESTEP
0
ITEM: NUMBER OF ATOMS
2
 ITEM: BOX BOUNDS xy xz yz pp pp pp
0.0 30.0
0.0 30.0
0.0 30.0
ITEM: ATOMS id type x y z vx vy vz
1 1 6.11624 29.9561 1.22396 -0.00613423 0.0315372 -0.00585897
2 1 3.55765 0.386517 28.0983 -0.0106099 -0.0105188 0.0164886
ITEM: TIMESTEP
0
ITEM: NUMBER OF ATOMS
2
 ITEM: BOX BOUNDS xy xz yz pp pp pp
0.0 30.0
0.0 30.0
0.0 30.0
ITEM: ATOMS id type x y z vx vy vz
1 1 6.12435 29.8964 1.2356 -0.00238837 0.028046 -0.00702277
2 1 3.58216 0.407939 28.0751 -0.0135512 -0.0151146 0.00589623
ITEM: TIMESTEP
0
ITEM: NUMBER OF ATOMS
2
 ITEM: BOX BOUNDS xy xz yz pp pp pp
0.0 30.0
0.0 30.0
0.0 30.0
ITEM: ATOMS id type x y z vx vy vz
1 1 6.12558 29.8407 1.24968 0.00011258 0.0247633 -0.00759986
2 1 3.60615 0.43785 28.0692 -0.0154098 -0.0127603 0.00330193
ITEM: TIMESTEP
0
ITEM: NUMBER OF ATOMS
2
 ITEM: BOX BOUNDS xy xz yz pp pp pp
0.0 30.0
0.0 30.0
0.0 30.0
ITEM: ATOMS id type x y z vx vy vz
1 1 6.12041 29.7888 1.26161 0.00500898 0.0269711 -0.00658347
2 1 3.64584 0.466261 28.0639 -0.021678 -0.0175471 0.0010621
ITEM: TIMESTEP
0
ITEM: NUMBER OF ATOMS
2
 ITEM: BOX BOUNDS xy xz yz pp pp pp
0.0 30.0
0.0 30.0
0.0 30.0
ITEM: ATOMS id type x y z vx vy vz
1 1 6.10286 29.7395 1.27419 0.0100435 0.0212946 -0.00814987
2 1 3.6864 0.507297 28.0594 -0.0172172 -0.0216344 0.00173999
ITEM: TIMESTEP
0
ITEM: NUMBER OF ATOMS
2
 ITEM: BOX BOUNDS xy xz yz pp pp pp
0.0 30.0
0.0 30.0
0.0 30.0
ITEM: ATOMS id type x y z vx vy vz
1 1 6.07619 29.7003 1.28749 0.0158122 0.0165582 -0.00659287
2 1 3.72141 0.550409 28.0595 -0.016706 -0.0202812 -0.00222149
ITEM: TIMESTEP
0
ITEM: NUMBER OF ATOMS
2
 ITEM: BOX BOUNDS xy xz yz pp pp pp
0.0 30.0
0.0 30.0
0.0 30.0
ITEM: ATOMS id type x y z vx vy vz
1 1 6.04678 29.6697 1.30287 0.0105743 0.0131633 -0.00774204
2 1 3.74991 0.584102 28.065 -0.0116979 -0.0138731 -0.00466206
ITEM: TIMESTEP
0
ITEM: NUMBER OF ATOMS
2
 ITEM: BOX BOUNDS xy xz yz pp pp pp
0.0 30.0
0.0 30.0
0.0 30.0
ITEM: ATOMS id type x y z vx vy vz
1 1 6.02436 29.6452 1.31246 0.01145 0.0118283 -0.00424845
2 1 3.77451 0.603825 28.0723 -0.0125221 -0.00858554 -0.00254673
ITEM: TIMESTEP
0
ITEM: NUMBER OF ATOMS
2
 ITEM: BOX BOUNDS xy xz yz pp pp pp
0.0 30.0
0.0 30.0
0.0 30.0
ITEM: ATOMS id type x y z vx vy vz
1 1 6.00004 29.6235 1.3242 0.0124939 0.00947765 -0.00424804
2 1 3.7984 0.620046 28.075 -0.0132116 -0.00932908 -0.000824219
ITEM: TIMESTEP
0
ITEM: NUMBER OF ATOMS
2
 ITEM: BOX BOUNDS xy xz yz pp pp pp
0.0 30.0
0.0 30.0
0.0 30.0
ITEM: ATOMS id type x y z vx vy vz
1 1 5.97636 29.6072 1.32482 0.0112579 0.00796338 0.000823157
2 1 3.82018 0.635646 28.0785 -0.0112579 -0.00796338 -0.000823157
ITEM: TIMESTEP
0
ITEM: NUMBER OF ATOMS
2
 ITEM: BOX BOUNDS xy xz yz pp pp pp
0.0 30.0
0.0 30.0
0.0 30.0
ITEM: ATOMS id type x y z vx vy vz
1 1 5.95105 29.5995 1.3229 -0.0158186 -0.00286753 -0.00122755
2 1 3.85124 0.649573 28.0795 0.018694 0.00432476 0.00316018
ITEM: TIMESTEP
0
ITEM: NUMBER OF ATOMS
2
 ITEM: BOX BOUNDS xy xz yz pp pp pp
0.0 30.0
0.0 30.0
0.0 30.0
ITEM: ATOMS id type x y z vx vy vz
1 1 5.92855 29.5945 1.32151 -0.00994744 -0.00308699 -0.00281506
2 1 3.89182 0.661836 28.0856 0.0225078 0.00925081 0.00512584
ITEM: TIMESTEP
0
ITEM: NUMBER OF ATOMS
2
 ITEM: BOX BOUNDS xy xz yz pp pp pp
0.0 30.0
0.0 30.0
0.0 30.0
ITEM: ATOMS id type x y z vx vy vz
1 1 5.90941 29.5869 1.31038 -0.00986493 -0.00405581 -0.00609282
2 1 3.94291 0.679924 28.0981 0.0285425 0.00649132 0.00706122
ITEM: TIMESTEP
0
ITEM: NUMBER OF ATOMS
2
 ITEM: BOX BOUNDS xy xz yz pp pp pp
0.0 30.0
0.0 30.0
0.0 30.0
ITEM: ATOMS id type x y z vx vy vz
1 1 5.88263 29.5801 1.29918 -0.018483 -0.00502536 -0.00539821
2 1 4.00604 0.691 28.114 0.0339916 0.00508261 0.0106785
ITEM: TIMESTEP
0
ITEM: NUMBER OF ATOMS
2
 ITEM: BOX BOUNDS xy xz yz pp pp pp
0.0 30.0
0.0 30.0
0.0 30.0
ITEM: ATOMS id type x y z vx vy vz
1 1 5.84409 29.5703 1.29093 -0.022101 -0.00316827 -0.000704961
2 1 4.06785 0.701165 28.1376 0.0291251 0.00447976 0.0131343
ITEM: TIMESTEP
0
ITEM: NUMBER OF ATOMS
2
 ITEM: BOX BOUNDS xy xz yz pp pp pp
0.0 30.0
0.0 30.0
0.0 30.0
ITEM: ATOMS id type x y z vx vy vz
1 1 5.79756 29.5665 1.2865 -0.0243082 -0.00319912 -0.00281613
2 1 4.13196 0.711916 28.1661 0.0348642 0.00686477 0.0155785
ITEM: TIMESTEP
0
ITEM: NUMBER OF ATOMS
2
 ITEM: BOX BOUNDS xy xz yz pp pp pp
0.0 30.0
0.0 30.0
0.0 30.0
ITEM: ATOMS id type x y z vx vy vz
1 1 5.74875 29.565 1.27607 -0.0264875 -0.000391125 -0.00484852
2 1 4.20325 0.728941 28.2012 0.0362033 0.00834063 0.0194711
ITEM: TIMESTEP
0
ITEM: NUMBER OF ATOMS
2
 ITEM: BOX BOUNDS xy xz yz pp pp pp
0.0 30.0
0.0 30.0
0.0 30.0
ITEM: ATOMS id type x y z vx vy vz
1 1 5.69256 29.5613 1.26787 -0.0295499 -0.00314702 -0.00536862
2 1 4.28184 0.744793 28.2464 0.0385342 0.00633404 0.0240682
ITEM: TIMESTEP
0
ITEM: NUMBER OF ATOMS
2
 ITEM: BOX BOUNDS xy xz yz pp pp pp
0.0 30.0
0.0 30.0
0.0 30.0
ITEM: ATOMS id type x y z vx vy vz
1 1 5.63352 29.558 1.24921 -0.029658 0.000611372 -0.0122638
2 1 4.35532 0.759467 28.2878 0.0345753 0.00926636 0.02005
