4
# Step: 0 Box:    8.0000    8.0000    8.0000 
H         1.480517056     0.074178113     0.164400573    -0.000003657     0.000003356     0.000009061
H         2.228370352     0.181766677     0.922727316     0.000010509     0.000022546     0.000015867
H         2.372823887    -0.839625248     0.840968573     0.000002176    -0.000008853     0.000010625
H         2.033116882    -0.837393370    -0.224974207    -0.000003425     0.000007931    -0.000019352
4
# Step: 1 Box:    8.0000    8.0000    8.0000 
H         1.491094026     0.217886566     0.344846404    -0.000003400     0.000006856     0.000012823
H         2.233228443     0.159062824     0.906800889     0.000008366     0.000000099    -0.000000422
H         2.348216000    -0.788725010     0.747080681    -0.000009243     0.000002671    -0.000015592
H         2.100659987    -0.749064482    -0.126828832     0.000009357     0.000013021     0.000017879
4
# Step: 2 Box:    8.0000    8.0000    8.0000 
H         1.397478876     0.267082212     0.455619602    -0.000002233     0.000009734     0.000016553
H         2.376619370     0.172956675     0.935362824     0.000003124    -0.000009595     0.000010055
H         2.293312913    -0.788394980     0.823907025    -0.000001941     0.000022690     0.000003383
H         2.155423922    -0.591187759    -0.199466670     0.000005308    -0.000003845    -0.000017679
4
# Step: 3 Box:    8.0000    8.0000    8.0000 
H         1.448010247     0.358742393     0.706827166    -0.000004275     0.000007773     0.000023733
H         2.334571570     0.270824130     0.904063991     0.000005706     0.000015817    -0.000007430
H         2.213299279    -0.782131620     0.758033075    -0.000012153    -0.000008500    -0.000012396
H         2.269199378    -0.598635028    -0.231349460     0.000014327     0.000000981     0.000006516
4
# Step: 4 Box:    8.0000    8.0000    8.0000 
H         1.322495651     0.515671667     0.962421512    -0.000003797     0.000007936     0.000021410
H         2.388864880     0.212421593     0.823224118     0.000003201     0.000001427    -0.000010836
H         2.140853339    -0.686644805     0.708510225    -0.000015490     0.000002633     0.000007003
H         2.447698426    -0.637356962    -0.255865331     0.000019017     0.000001070    -0.000009102
