1
# Step: 0 Box:       inf    0.0000    0.0000 
H        -0.301934945     0.000000000     0.000000000     0.117089291    -0.093908860    -0.008867844
1
# Step: 1 Box:       inf    0.0000    0.0000 
H        -0.299039733     0.000000000     0.000000000     0.125678721    -0.093908860    -0.008867844
