4
# Step: 0 Box:    8.0000    8.0000    8.0000 
H         2.946459194    -0.548324783     0.850520166    -0.000290256     0.000008517     0.000673362
H         2.994770847     0.098095906     0.116874270     0.000525575    -0.000313755     0.000781691
H         1.998404660     0.282742694     0.240138074    -0.000626839    -0.000148896    -0.000795810
H         2.121247970     0.008197536     1.257264314     0.000391520     0.000454135    -0.000659242
4
# Step: 1 Box:    8.0000    8.0000    8.0000 
H         2.922506891    -0.571239927     0.941476207    -0.000103536    -0.000120669     0.000622010
H         2.982699732     0.099218434     0.161934261    -0.000213877    -0.000094432     0.000395431
H         2.034911156     0.229415039     0.223927253     0.000559226    -0.000451593    -0.000681539
H         2.120764892     0.083317917     1.137459212    -0.000241813     0.000666695    -0.000335901
4
# Step: 2 Box:    8.0000    8.0000    8.0000 
H         2.908765815    -0.557978202     0.966883552    -0.000202897     0.000117442     0.000117186
H         3.055373054     0.056196899     0.201304075     0.000922952    -0.000345000    -0.000091309
H         2.034814556     0.184087609     0.121807010     0.000302647    -0.000613524     0.000130626
H         2.061929246     0.158405266     1.174802406    -0.001022702     0.000841083    -0.000156502
4
# Step: 3 Box:    8.0000    8.0000    8.0000 
H         2.914300477    -0.562605554     0.980700494     0.000407330    -0.000242556     0.000158517
H         3.078071906     0.024390901     0.206979622     0.000042575    -0.000296293     0.000747166
H         2.121613185     0.115170832     0.159907479     0.000227217    -0.000550516    -0.000746477
H         1.946897103     0.263755503     1.117209557    -0.000677123     0.001089367    -0.000159206
4
# Step: 4 Box:    8.0000    8.0000    8.0000 
H         2.961006028    -0.640262654     1.035312899     0.000349092    -0.001040186     0.000636123
H         3.105046221     0.039937007     0.298654122    -0.000276985     0.000513697     0.000571516
H         2.074238606     0.059479188     0.083581424    -0.000018202    -0.000441855     0.000403095
H         1.920591816     0.381558250     1.047248817    -0.000053905     0.000968344    -0.001610733
4
# Step: 5 Box:    8.0000    8.0000    8.0000 
H         2.993526279    -0.712582854     1.033459485     0.000165502    -0.000341435    -0.000600892
H         3.043709468     0.063544512     0.401173404     0.000124356     0.000056022     0.001410547
H         2.130887668    -0.038045510     0.128110597     0.000251452    -0.001593167    -0.000072226
H         1.892759255     0.527795752     0.902053885    -0.000541310     0.001878580    -0.000737428
