4
# Step: 0 Box:    8.0000    8.0000    8.0000 
H         2.946459194    -0.548324783     0.850520166     0.000290256    -0.000008517    -0.000673362
H         2.994770847     0.098095906     0.116874270    -0.000525575     0.000313755    -0.000781691
H         1.998404660     0.282742694     0.240138074     0.000626839     0.000148896     0.000795810
H         2.121247970     0.008197536     1.257264314    -0.000391520    -0.000454135     0.000659242
4
# Step: 1 Box:    8.0000    8.0000    8.0000 
H         2.997425162    -0.564573878     0.781786662     0.000696858    -0.000177464    -0.000725890
H         2.948619270     0.118910240     0.062600959    -0.000095342    -0.000236521     0.000205213
H         2.014752716     0.314674387     0.357526454    -0.000991225     0.000964750     0.000306382
H         2.100085523    -0.028299505     1.262882639     0.000389709    -0.000550765     0.000214294
4
# Step: 2 Box:    8.0000    8.0000    8.0000 
H         3.058161141    -0.612141318     0.743244854     0.000150164    -0.000439539    -0.000076131
H         2.889424570     0.145861285     0.065412303    -0.000923345     0.000799486    -0.000405602
H         1.958196241     0.391891439     0.388736075     0.000473099    -0.000145314     0.001005245
H         2.155100719    -0.084900271     1.267403372     0.000300082    -0.000214634    -0.000523513
4
# Step: 3 Box:    8.0000    8.0000    8.0000 
H         3.020048399    -0.566582117     0.679880502    -0.000655852     0.000883116    -0.000779539
H         2.857360691     0.158990684     0.051382386     0.000167785    -0.000261028    -0.000067642
H         1.971135086     0.395481168     0.477146967    -0.000354103     0.000519118     0.000227414
H         2.212338495    -0.147178710     1.256386641     0.000842169    -0.001141207     0.000619766
4
# Step: 4 Box:    8.0000    8.0000    8.0000 
H         2.959551479    -0.536143787     0.664799027    -0.000286752     0.000019998     0.000012433
H         2.814614254     0.220388103    -0.015698114    -0.000824784     0.000670662    -0.000451530
H         2.009883029     0.396936814     0.532438446     0.000722614    -0.000286171     0.000897136
H         2.276833909    -0.240470214     1.283257028     0.000388922    -0.000404490    -0.000458041
4
# Step: 5 Box:    8.0000    8.0000    8.0000 
H         2.974701699    -0.510653806     0.611872291     0.000553661    -0.000091440    -0.000344058
H         2.747189684     0.190775567     0.018429227    -0.000671259    -0.000236380     0.000144602
H         1.995796479     0.460442571     0.624843652    -0.000400798     0.000898379     0.000915603
H         2.343194809    -0.299853526     1.209651108     0.000518397    -0.000570559    -0.000716148
4
# Step: 6 Box:    8.0000    8.0000    8.0000 
H         3.048586234    -0.536716789     0.606166094     0.000453031     0.000531483    -0.000609839
H         2.630099455     0.236871361    -0.024081388    -0.000939697    -0.000043099    -0.000028478
H         2.044453876     0.477278103     0.731456274     0.000836048     0.000098282     0.000789682
H         2.337743106    -0.336721979     1.151255188    -0.000349382    -0.000586666    -0.000151366
4
# Step: 7 Box:    8.0000    8.0000    8.0000 
H         3.085448613    -0.411001343     0.491575871     0.000802007     0.000894950    -0.000675912
H         2.561668420     0.176692155    -0.023451097    -0.001037386     0.000016097    -0.000709014
H         2.133922156     0.516948794     0.821443131     0.001135436    -0.000217421     0.000974101
H         2.279843481    -0.441929019     1.175228154    -0.000900058    -0.000693627     0.000410824
4
# Step: 8 Box:    8.0000    8.0000    8.0000 
H         3.213687513    -0.335951785     0.398536582     0.000899707     0.000942375    -0.001722317
H         2.426035446     0.193793180    -0.041032256    -0.000567981    -0.000571191     0.001120405
H         2.262973356     0.464090799     0.898121665     0.000858749     0.000027155     0.000491252
H         2.158186356    -0.481221716     1.209169958    -0.001190475    -0.000398340     0.000110659
4
# Step: 9 Box:    8.0000    8.0000    8.0000 
H         3.313120554    -0.233795173     0.180679561     0.001315260     0.000748118    -0.001753990
H         2.391398718     0.105561810     0.066387640    -0.000730329    -0.000410533     0.000257639
H         2.320991644     0.452699627     1.004354836     0.000425169    -0.000797517     0.001260424
H         2.035371755    -0.483755896     1.213373803    -0.001010100     0.000459932     0.000235926
