4
# Step: 0 Box:    8.0000    8.0000    8.0000 
H         1.294619252     0.883807368     0.356214973     0.000007386     0.000003949     0.000008931
H         1.278883065     0.164511136     0.916478945     0.000018961    -0.000001949     0.000004413
H         2.059797985    -0.232420393     0.480673882     0.000017906    -0.000005083     0.000009966
H         1.530907058    -0.350702953    -0.422862767    -0.000000571    -0.000008008    -0.000001417
4
# Step: 1 Box:    8.0000    8.0000    8.0000 
H         1.396089913     0.963139828     0.393573672     0.000004588     0.000001501     0.000011654
H         1.421927911     0.083354466     1.008951425     0.000019628     0.000001266    -0.000007415
H         2.193907070    -0.285497867     0.446309191     0.000007088    -0.000008795    -0.000001057
H         1.586154856    -0.405962861    -0.300876569     0.000006722    -0.000003627     0.000015877
4
# Step: 2 Box:    8.0000    8.0000    8.0000 
H         1.536351566     0.876594953     0.475687753     0.000013125    -0.000007617     0.000005433
H         1.560401365     0.095246030     1.068820676     0.000012682    -0.000000634     0.000008356
H         2.290788770    -0.248433674     0.447801345     0.000012845     0.000005783     0.000005813
H         1.605275288    -0.468598795    -0.246513531    -0.000003172    -0.000006540    -0.000001819
4
# Step: 3 Box:    8.0000    8.0000    8.0000 
H         1.595590943     0.890264038     0.525806334     0.000007781     0.000002656    -0.000001554
H         1.739224649     0.071728779     1.126048015     0.000007566    -0.000005851     0.000016062
H         2.382583918    -0.300598533     0.469778309     0.000009950    -0.000006526    -0.000011436
H         1.643004030    -0.499917175    -0.191605558     0.000008331     0.000001183     0.000013781
4
# Step: 4 Box:    8.0000    8.0000    8.0000 
H         1.668818566     0.850366422     0.584468404     0.000010901    -0.000009178     0.000002884
H         1.890597830     0.072900431     1.155975668     0.000019190    -0.000000979     0.000007955
H         2.461944652    -0.352422506     0.464652847     0.000001618     0.000005055     0.000005787
H         1.696891232    -0.500226182    -0.095719457     0.000001667    -0.000003373     0.000000103
4
# Step: 5 Box:    8.0000    8.0000    8.0000 
H         1.772687336     0.772860859     0.612396630     0.000004306    -0.000001958     0.000007340
H         2.027160530     0.053526900     1.217146126     0.000018427     0.000000237    -0.000001908
H         2.585418077    -0.334328021     0.502413546     0.000000718    -0.000006395     0.000002837
H         1.678643431    -0.509205018    -0.049338816     0.000009089    -0.000000145     0.000008040
4
# Step: 6 Box:    8.0000    8.0000    8.0000 
H         1.818944034     0.781108021     0.657046916     0.000005666     0.000000407     0.000004583
H         2.164494083     0.040221237     1.267536434     0.000010631    -0.000001873     0.000002953
H         2.639437580    -0.423029788     0.453850276     0.000015142    -0.000005790    -0.000000223
H         1.776145207    -0.500530643     0.072138549    -0.000000360    -0.000000634     0.000008264
