4
# Step: 0 Box:    8.0000    8.0000    8.0000 
H         1.916223335     0.813939837     0.656327634    -0.000009921    -0.000005004     0.000008342
H         2.307744782     0.082493153     1.188158573    -0.000006559     0.000007889     0.000007578
H         2.677365859    -0.369112313     0.367730944    -0.000017326    -0.000010396     0.000006632
H         1.726628070    -0.448953064    -0.101103152     0.000013733    -0.000008323     0.000007209
4
# Step: 1 Box:    8.0000    8.0000    8.0000 
H         1.831747496     0.785796511     0.652637421    -0.000006648    -0.000000927    -0.000003490
H         2.173743331     0.037959411     1.256283213    -0.000002742    -0.000013335     0.000000443
H         2.642043102    -0.413860905     0.438616234    -0.000004355     0.000007732     0.000022972
H         1.776835454    -0.492125533     0.065431426    -0.000004487    -0.000007852     0.000007107
4
# Step: 2 Box:    8.0000    8.0000    8.0000 
H         1.805221247     0.706976642     0.670982823    -0.000001804    -0.000009949     0.000006984
H         2.088551095     0.011994480     1.307091739    -0.000017400     0.000009487     0.000011167
H         2.625012418    -0.348592847     0.613695579     0.000000090    -0.000004220     0.000000652
H         1.720269839    -0.598788947     0.095952960     0.000002277    -0.000008600     0.000006161
