1
# Step: 0 Box:       inf    0.0000    0.0000 
H         0.823698638     0.000000000     0.000000000     0.391159417    -0.066930387     0.100096440
1
# Step: 1 Box:       inf    0.0000    0.0000 
H         0.832896614     0.000000000     0.000000000     0.358514945    -0.066930387     0.100096440
1
# Step: 2 Box:       inf    0.0000    0.0000 
H         0.841294258     0.000000000     0.000000000     0.331552978    -0.066930387     0.100096440
1
# Step: 3 Box:       inf    0.0000    0.0000 
H         0.850256231     0.000000000     0.000000000     0.382999174    -0.066930387     0.100096440
1
# Step: 4 Box:       inf    0.0000    0.0000 
H         0.860316044     0.000000000     0.000000000     0.392887778    -0.066930387     0.100096440
1
# Step: 5 Box:       inf    0.0000    0.0000 
H         0.869546960     0.000000000     0.000000000     0.376045643    -0.066930387     0.100096440
1
# Step: 6 Box:       inf    0.0000    0.0000 
H         0.879143153     0.000000000     0.000000000     0.412737456    -0.066930387     0.100096440
1
# Step: 7 Box:       inf    0.0000    0.0000 
H         0.889895817     0.000000000     0.000000000     0.457930213    -0.066930387     0.100096440
1
# Step: 8 Box:       inf    0.0000    0.0000 
H         0.901462538     0.000000000     0.000000000     0.477935689    -0.066930387     0.100096440
1
# Step: 9 Box:       inf    0.0000    0.0000 
H         0.912976071     0.000000000     0.000000000     0.458236728    -0.066930387     0.100096440
1
# Step: 10 Box:       inf    0.0000    0.0000 
H         0.924250587     0.000000000     0.000000000     0.445942935    -0.066930387     0.100096440
1
# Step: 11 Box:       inf    0.0000    0.0000 
H         0.935879446     0.000000000     0.000000000     0.470002589    -0.066930387     0.100096440
1
# Step: 12 Box:       inf    0.0000    0.0000 
H         0.948504050     0.000000000     0.000000000     0.520055832    -0.066930387     0.100096440
1
# Step: 13 Box:       inf    0.0000    0.0000 
H         0.962629910     0.000000000     0.000000000     0.587505475    -0.066930387     0.100096440
1
# Step: 14 Box:       inf    0.0000    0.0000 
H         0.976959038     0.000000000     0.000000000     0.573165634    -0.066930387     0.100096440
1
# Step: 15 Box:       inf    0.0000    0.0000 
H         0.991621007     0.000000000     0.000000000     0.601950063    -0.066930387     0.100096440
1
# Step: 16 Box:       inf    0.0000    0.0000 
H         1.006643966     0.000000000     0.000000000     0.586377211    -0.066930387     0.100096440
