1
# Step: 0 Box:       inf    0.0000    0.0000 
H         0.823698638     0.000000000     0.000000000    -0.391159417     0.066930387    -0.100096440
1
# Step: 1 Box:       inf    0.0000    0.0000 
H         0.814255256     0.000000000     0.000000000    -0.354997661     0.066930387    -0.100096440
1
# Step: 2 Box:       inf    0.0000    0.0000 
H         0.806247822     0.000000000     0.000000000    -0.301251893     0.066930387    -0.100096440
1
# Step: 3 Box:       inf    0.0000    0.0000 
H         0.799076319     0.000000000     0.000000000    -0.259345968     0.066930387    -0.100096440
1
# Step: 4 Box:       inf    0.0000    0.0000 
H         0.792972633     0.000000000     0.000000000    -0.227237580     0.066930387    -0.100096440
1
# Step: 5 Box:       inf    0.0000    0.0000 
H         0.788120904     0.000000000     0.000000000    -0.165743558     0.066930387    -0.100096440
1
# Step: 6 Box:       inf    0.0000    0.0000 
H         0.784096038     0.000000000     0.000000000    -0.143542457     0.066930387    -0.100096440
1
# Step: 7 Box:       inf    0.0000    0.0000 
H         0.781220575     0.000000000     0.000000000    -0.092412388     0.066930387    -0.100096440
1
# Step: 8 Box:       inf    0.0000    0.0000 
H         0.779378004     0.000000000     0.000000000    -0.064442818     0.066930387    -0.100096440
1
# Step: 9 Box:       inf    0.0000    0.0000 
H         0.777885818     0.000000000     0.000000000    -0.071520525     0.066930387    -0.100096440
1
# Step: 10 Box:       inf    0.0000    0.0000 
H         0.776274638     0.000000000     0.000000000    -0.062264519     0.066930387    -0.100096440
1
# Step: 11 Box:       inf    0.0000    0.0000 
H         0.774928285     0.000000000     0.000000000    -0.080337437     0.066930387    -0.100096440
1
# Step: 12 Box:       inf    0.0000    0.0000 
H         0.772458734     0.000000000     0.000000000    -0.090878558     0.066930387    -0.100096440
1
# Step: 13 Box:       inf    0.0000    0.0000 
H         0.770514963     0.000000000     0.000000000    -0.046929553     0.066930387    -0.100096440
1
# Step: 14 Box:       inf    0.0000    0.0000 
H         0.769962007     0.000000000     0.000000000    -0.007362989     0.066930387    -0.100096440
1
# Step: 15 Box:       inf    0.0000    0.0000 
H         0.770697434     0.000000000     0.000000000     0.063302813     0.066930387    -0.100096440
1
# Step: 16 Box:       inf    0.0000    0.0000 
H         0.772677359     0.000000000     0.000000000     0.080000166     0.066930387    -0.100096440
1
# Step: 17 Box:       inf    0.0000    0.0000 
H         0.774968629     0.000000000     0.000000000     0.105452133     0.066930387    -0.100096440
1
# Step: 18 Box:       inf    0.0000    0.0000 
H         0.777911054     0.000000000     0.000000000     0.100651715     0.066930387    -0.100096440
1
# Step: 19 Box:       inf    0.0000    0.0000 
H         0.780633828     0.000000000     0.000000000     0.110140903     0.066930387    -0.100096440
1
# Step: 20 Box:       inf    0.0000    0.0000 
H         0.783693498     0.000000000     0.000000000     0.135267547     0.066930387    -0.100096440
1
# Step: 21 Box:       inf    0.0000    0.0000 
H         0.787354469     0.000000000     0.000000000     0.177011392     0.066930387    -0.100096440
1
# Step: 22 Box:       inf    0.0000    0.0000 
H         0.792328650     0.000000000     0.000000000     0.195782344     0.066930387    -0.100096440
1
# Step: 23 Box:       inf    0.0000    0.0000 
H         0.798014918     0.000000000     0.000000000     0.232646025     0.066930387    -0.100096440
1
# Step: 24 Box:       inf    0.0000    0.0000 
H         0.803727600     0.000000000     0.000000000     0.247258013     0.066930387    -0.100096440
1
# Step: 25 Box:       inf    0.0000    0.0000 
H         0.811211191     0.000000000     0.000000000     0.332874945     0.066930387    -0.100096440
1
# Step: 26 Box:       inf    0.0000    0.0000 
H         0.819968719     0.000000000     0.000000000     0.376404489     0.066930387    -0.100096440
1
# Step: 27 Box:       inf    0.0000    0.0000 
H         0.829727192     0.000000000     0.000000000     0.429146060     0.066930387    -0.100096440
1
# Step: 28 Box:       inf    0.0000    0.0000 
H         0.839992497     0.000000000     0.000000000     0.405901465     0.066930387    -0.100096440
1
# Step: 29 Box:       inf    0.0000    0.0000 
H         0.849013507     0.000000000     0.000000000     0.355202708     0.066930387    -0.100096440
1
# Step: 30 Box:       inf    0.0000    0.0000 
H         0.858010602     0.000000000     0.000000000     0.371078336     0.066930387    -0.100096440
1
# Step: 31 Box:       inf    0.0000    0.0000 
H         0.867289805     0.000000000     0.000000000     0.391448167     0.066930387    -0.100096440
1
# Step: 32 Box:       inf    0.0000    0.0000 
H         0.877284291     0.000000000     0.000000000     0.413546428     0.066930387    -0.100096440
1
# Step: 33 Box:       inf    0.0000    0.0000 
H         0.887441974     0.000000000     0.000000000     0.379702067     0.066930387    -0.100096440
1
# Step: 34 Box:       inf    0.0000    0.0000 
H         0.897600558     0.000000000     0.000000000     0.440336033     0.066930387    -0.100096440
1
# Step: 35 Box:       inf    0.0000    0.0000 
H         0.908572844     0.000000000     0.000000000     0.451613208     0.066930387    -0.100096440
1
# Step: 36 Box:       inf    0.0000    0.0000 
H         0.920546225     0.000000000     0.000000000     0.507220385     0.066930387    -0.100096440
1
# Step: 37 Box:       inf    0.0000    0.0000 
H         0.933017465     0.000000000     0.000000000     0.494560166     0.066930387    -0.100096440
1
# Step: 38 Box:       inf    0.0000    0.0000 
H         0.945199688     0.000000000     0.000000000     0.487607803     0.066930387    -0.100096440
1
# Step: 39 Box:       inf    0.0000    0.0000 
H         0.957134085     0.000000000     0.000000000     0.495983332     0.066930387    -0.100096440
1
# Step: 40 Box:       inf    0.0000    0.0000 
H         0.969241547     0.000000000     0.000000000     0.489691380     0.066930387    -0.100096440
1
# Step: 41 Box:       inf    0.0000    0.0000 
H         0.982364021     0.000000000     0.000000000     0.547218224     0.066930387    -0.100096440
1
# Step: 42 Box:       inf    0.0000    0.0000 
H         0.996047122     0.000000000     0.000000000     0.558216429     0.066930387    -0.100096440
1
# Step: 43 Box:       inf    0.0000    0.0000 
H         1.009728106     0.000000000     0.000000000     0.528935101     0.066930387    -0.100096440
