4
# Step: 0 Box:    8.0000    8.0000    8.0000 
H         1.912590363     0.398482647     0.728927436    -0.000000424     0.000018197     0.000010825
H         2.839799120     0.334198657     1.276366648     0.000016166    -0.000018103    -0.000001804
H         3.247408146    -0.262282507     0.496704098    -0.000006231     0.000002446     0.000003882
H         2.335304873    -0.571892760     0.176687858     0.000017755     0.000003206     0.000008364
4
# Step: 1 Box:    8.0000    8.0000    8.0000 
H         2.090507651     0.532323239     0.789797532     0.000024734     0.000008919     0.000003013
H         2.866804894     0.149024494     1.343003155     0.000005294    -0.000010494     0.000013191
H         3.237426713    -0.160317382     0.441430522    -0.000005057     0.000016746    -0.000001543
H         2.407693703    -0.566187454     0.312967883    -0.000002227    -0.000010379     0.000003078
4
# Step: 2 Box:    8.0000    8.0000    8.0000 
H         2.249224535     0.694845275     0.953314381     0.000008096     0.000018652     0.000008698
H         2.918088847     0.105688964     1.340485649     0.000004377    -0.000006255     0.000021603
H         3.253694059    -0.091048995     0.502101719    -0.000001868    -0.000002213    -0.000013575
H         2.403422915    -0.707858916     0.264451403     0.000008519    -0.000006154    -0.000001810
