4
# Step: 0 Box:    8.0000    8.0000    8.0000 
H         2.044696192     0.795164180     0.704634359    -0.000008359    -0.000001336    -0.000004875
H         2.980056272     0.433480109     0.979515950    -0.000003665    -0.000016411     0.000002253
H         2.988389145    -0.048341098     0.058669986    -0.000003439     0.000009381     0.000028042
H         1.987883870    -0.303661292     0.150405959    -0.000007179    -0.000009495     0.000008152
4
# Step: 1 Box:    8.0000    8.0000    8.0000 
H         2.031413232     0.803878501     0.691652864    -0.000000328     0.000003471     0.000000012
H         2.801365834     0.308879423     1.077934399    -0.000011630    -0.000002430     0.000021873
H         2.913974661    -0.032060738     0.192315285    -0.000016368    -0.000005829     0.000003685
H         2.030137134    -0.380862479     0.263655099     0.000008952    -0.000010495     0.000003156
4
# Step: 2 Box:    8.0000    8.0000    8.0000 
H         1.978663211     0.921565102     0.791540906    -0.000005883     0.000009546    -0.000000999
H         2.687031104     0.318225411     1.190245974    -0.000001156    -0.000002501     0.000023688
H         2.919959551    -0.115892055     0.288136673    -0.000002713    -0.000000254     0.000005361
H         1.998894140    -0.575792206     0.240826847    -0.000006911    -0.000019935    -0.000003342
