1
# Step: 0 Box:       inf    0.0000    0.0000 
H         0.297364716     0.000000000     0.000000000     0.005091205     0.153187060    -0.094301052
1
# Step: 1 Box:       inf    0.0000    0.0000 
H         0.297645750     0.000000000     0.000000000     0.029007379     0.153187060    -0.094301052
1
# Step: 2 Box:       inf    0.0000    0.0000 
H         0.298920597     0.000000000     0.000000000     0.069084983     0.153187060    -0.094301052
1
# Step: 3 Box:       inf    0.0000    0.0000 
H         0.300961251     0.000000000     0.000000000     0.112872774     0.153187060    -0.094301052
1
# Step: 4 Box:       inf    0.0000    0.0000 
H         0.304648143     0.000000000     0.000000000     0.158830397     0.153187060    -0.094301052
1
# Step: 5 Box:       inf    0.0000    0.0000 
H         0.309536171     0.000000000     0.000000000     0.199745709     0.153187060    -0.094301052
1
# Step: 6 Box:       inf    0.0000    0.0000 
H         0.315888635     0.000000000     0.000000000     0.272951734     0.153187060    -0.094301052
1
# Step: 7 Box:       inf    0.0000    0.0000 
H         0.322319149     0.000000000     0.000000000     0.276210189     0.153187060    -0.094301052
1
# Step: 8 Box:       inf    0.0000    0.0000 
H         0.329463151     0.000000000     0.000000000     0.295609121     0.153187060    -0.094301052
1
# Step: 9 Box:       inf    0.0000    0.0000 
H         0.336962681     0.000000000     0.000000000     0.307807038     0.153187060    -0.094301052
1
# Step: 10 Box:       inf    0.0000    0.0000 
H         0.344560518     0.000000000     0.000000000     0.296751706     0.153187060    -0.094301052
1
# Step: 11 Box:       inf    0.0000    0.0000 
H         0.352891472     0.000000000     0.000000000     0.350798324     0.153187060    -0.094301052
1
# Step: 12 Box:       inf    0.0000    0.0000 
H         0.362783624     0.000000000     0.000000000     0.406692108     0.153187060    -0.094301052
1
# Step: 13 Box:       inf    0.0000    0.0000 
H         0.373474725     0.000000000     0.000000000     0.453881825     0.153187060    -0.094301052
1
# Step: 14 Box:       inf    0.0000    0.0000 
H         0.384654020     0.000000000     0.000000000     0.481138725     0.153187060    -0.094301052
1
# Step: 15 Box:       inf    0.0000    0.0000 
H         0.397136010     0.000000000     0.000000000     0.540090766     0.153187060    -0.094301052
1
# Step: 16 Box:       inf    0.0000    0.0000 
H         0.411484724     0.000000000     0.000000000     0.605636833     0.153187060    -0.094301052
