2
# Step: 0 Box:    3.0000    3.0000    3.0000
H         0.050034573     0.023190185     0.017280006     2.939152593    -0.437859265    -0.721521638
H         0.441109505    -0.070664196    -0.032123355    -0.299699090    -0.865753619     2.304565347
2
# Step: 1 Box:    3.0000    3.0000    3.0000
H         0.056228650     0.022196325     0.015869759     3.258803141    -0.550961824    -0.713332794
H         0.440175341    -0.072310459    -0.027500276    -0.607036420    -0.780367684     2.314063667
2
# Step: 2 Box:    3.0000    3.0000    3.0000
H         0.063082554     0.021047861     0.014445197     3.617190028    -0.630074524    -0.734837394
H         0.438584202    -0.073819470    -0.022867088    -0.977666367    -0.739849767     2.336200913
2
# Step: 3 Box:    3.0000    3.0000    3.0000
H         0.070737337     0.019705959     0.012990196     4.024211683    -0.696720433    -0.713374833
H         0.436276858    -0.075143012    -0.018227049    -1.367474821    -0.611130641     2.307626700
2
# Step: 4 Box:    3.0000    3.0000    3.0000
H         0.079196909     0.018232152     0.011531920     4.446168314    -0.767431341    -0.729220456
H         0.433198857    -0.076221910    -0.013579171    -1.707906417    -0.462832995     2.348576829
2
# Step: 5 Box:    3.0000    3.0000    3.0000
H         0.088463454     0.016584412     0.010072137     4.814455219    -0.868864020    -0.714842732
H         0.429403967    -0.077092082    -0.008883097    -2.056189911    -0.380276382     2.371424570
2
# Step: 6 Box:    3.0000    3.0000    3.0000
H         0.098313769     0.014743357     0.008627722     5.008862342    -0.947733424    -0.720906569
H         0.425070016    -0.077778121    -0.004183133    -2.262899084    -0.324286426     2.340419350
