2
# Step: 0 Box:    3.0000    3.0000    3.0000
H         0.023027391     0.025458211     0.025484542    -1.046179605    -0.040118190     0.405243645
H         0.431328379    -0.056597320    -0.062681070    -1.665952976     1.169864899    -2.111880376
2
# Step: 1 Box:    3.0000    3.0000    3.0000
H         0.021199029     0.025281493     0.026353254    -0.769259570    -0.110903668     0.414059713
H         0.427727836    -0.054271736    -0.066951991    -1.942935023     1.157327436    -2.116013656
2
# Step: 2 Box:    3.0000    3.0000    3.0000
H         0.019914922     0.025031423     0.027155313    -0.553922195    -0.158928873     0.366450099
H         0.423607656    -0.051905972    -0.071109209    -2.196409277     1.222465326    -2.030373944
2
# Step: 3 Box:    3.0000    3.0000    3.0000
H         0.019074073     0.024577156     0.027843646    -0.305340011    -0.270016119     0.303584625
H         0.418985954    -0.049458323    -0.075133699    -2.408844713     1.258749110    -1.979804021
2
# Step: 4 Box:    3.0000    3.0000    3.0000
H         0.018753759     0.023950410     0.028381723    -0.046445966    -0.352279343     0.213334899
H         0.413923672    -0.046868807    -0.079056843    -2.658360514     1.331370826    -1.910163736
2
# Step: 5 Box:    3.0000    3.0000    3.0000
H         0.018934089     0.023160800     0.028762787     0.224212450    -0.427811042     0.147072638
H         0.408323165    -0.044203643    -0.082744554    -2.946586132     1.347674926    -1.739990480
2
# Step: 6 Box:    3.0000    3.0000    3.0000
H         0.019718837     0.022246321     0.028961034     0.544398355    -0.464281888     0.045660636
H         0.402169436    -0.041469645    -0.086201502    -3.214496954     1.401651067    -1.675188996
