4
# Step: 0 Box:    8.0000    8.0000    8.0000 
H         3.295351733    -0.006695678     0.521577827    -0.000289008     0.000422845     0.000553152
H         2.567724138     0.705482404     0.530241239     0.000096558    -0.000630049    -0.000306229
H         1.950448091    -0.014435382     0.884751359    -0.000502524    -0.000885178    -0.000336346
H         2.521569546    -0.785836542     0.742125788     0.000694975     0.001092382     0.000089423
4
# Step: 1 Box:    8.0000    8.0000    8.0000 
H         3.306768229     0.012057730     0.602160743     0.000525317    -0.000417686     0.001046469
H         2.517639984     0.615756159     0.488522847    -0.001443366    -0.000027544    -0.000589374
H         1.870778039    -0.030373632     0.869176532     0.000192019    -0.000197562    -0.000213832
H         2.639907365    -0.698925455     0.718836090     0.000726031     0.000642792    -0.000243263
4
# Step: 2 Box:    8.0000    8.0000    8.0000 
H         3.259720611     0.048530642     0.709897923    -0.001345283     0.001374063     0.000720629
H         2.466197540     0.606056967     0.413383577     0.000693166    -0.000698316    -0.000494741
H         1.924275631    -0.094325959     0.863004639     0.000015457    -0.000344406     0.000134577
H         2.684899945    -0.661746848     0.692410074     0.000636661    -0.000331341    -0.000360465
4
# Step: 3 Box:    8.0000    8.0000    8.0000 
H         3.222488147     0.187064938     0.826032105     0.000751337     0.001181003     0.001419033
H         2.431572183     0.571017355     0.341632196    -0.001184644     0.000115830    -0.000908707
H         1.953274820    -0.105571098     0.849887186     0.000673070    -0.000382619    -0.000377824
H         2.727758686    -0.753996394     0.661144726    -0.000239762    -0.000914214    -0.000132501
4
# Step: 4 Box:    8.0000    8.0000    8.0000 
H         3.245538012     0.402471409     0.899460109    -0.000310730     0.002490408     0.000111407
H         2.458275484     0.519408318     0.319757225     0.001281675    -0.000955626     0.000378541
H         1.947899822    -0.189696351     0.826608830    -0.000612095    -0.000833864    -0.000073723
H         2.683380628    -0.833668573     0.632870049    -0.000358849    -0.000700919    -0.000416225
4
# Step: 5 Box:    8.0000    8.0000    8.0000 
H         3.247183329     0.635301522     0.994780230    -0.000317605     0.001608979     0.001158966
H         2.479447106     0.436104673     0.270461607    -0.000252830    -0.000440658    -0.000947600
H         1.972072539    -0.240975371     0.818944604     0.000934793    -0.000034356     0.000086758
H         2.636391081    -0.931916023     0.594509771    -0.000364357    -0.001133966    -0.000298124
