4
# Step: 0 Box:    8.0000    8.0000    8.0000 
H         1.535325115    -0.343294944     0.745621532     0.000082239    -0.000281260    -0.000347032
H         2.277620551    -0.699165882     1.282848868     0.000261396    -0.000121900    -0.000265186
H         3.012766583    -0.281683451     0.750340791    -0.000237841    -0.000609844    -0.000076488
H         2.437963879     0.159214356     0.014881387    -0.000105793     0.001013004     0.000688706
4
# Step: 1 Box:    8.0000    8.0000    8.0000 
H         1.561158155    -0.335673794     0.679088181     0.000456783     0.000251959    -0.000658094
H         2.272765092    -0.742529000     1.264586457    -0.000089918    -0.000284353    -0.000504173
H         3.033204073    -0.299259922     0.703289789     0.000408799    -0.000180234    -0.000230595
H         2.396548918     0.212532796     0.146728151    -0.000775663     0.000212628     0.001392862
4
# Step: 2 Box:    8.0000    8.0000    8.0000 
H         1.627907773    -0.296077299     0.608618353     0.000744527     0.000466067    -0.000635868
H         2.307040803    -0.767608406     1.184259616     0.000268933    -0.000606954    -0.000467729
H         3.019121315    -0.334158083     0.713589772    -0.000437140    -0.000021354    -0.000063899
H         2.309606457     0.232913867     0.287224838    -0.000576319     0.000162241     0.001167496
4
# Step: 3 Box:    8.0000    8.0000    8.0000 
H         1.708167697    -0.267797150     0.574264842     0.000454417    -0.000033233     0.000054900
H         2.282460478    -0.855778349     1.136853891    -0.000177668    -0.000566276    -0.000827142
H         3.015002317    -0.312610534     0.695992319     0.000051898     0.000005620     0.000150092
H         2.258045964     0.271256112     0.386581526    -0.000328646     0.000593889     0.000622150
4
# Step: 4 Box:    8.0000    8.0000    8.0000 
H         1.681402404    -0.274292657     0.588077283    -0.000834657    -0.000083028     0.000189649
H         2.312687999    -0.915423470     1.027166685     0.000169153    -0.000809805    -0.000975716
H         2.992314540    -0.309775609     0.737209322     0.000078357     0.000432403     0.000339128
H         2.277271622     0.334561815     0.441239287     0.000587148     0.000460430     0.000446938
4
# Step: 5 Box:    8.0000    8.0000    8.0000 
H         1.583844601    -0.316800011     0.637385625    -0.000830689    -0.000550763     0.000662502
H         2.293385902    -0.973457812     0.892040300     0.000097600    -0.000033000    -0.001512365
H         3.043775872    -0.259083340     0.786242288     0.000099786     0.000071190     0.000659184
H         2.342670299     0.384411242     0.478024366     0.000633304     0.000512572     0.000190679
4
# Step: 6 Box:    8.0000    8.0000    8.0000 
H         1.524397360    -0.353942165     0.726978462     0.000003144    -0.000310894     0.001027977
H         2.335227437    -0.991879659     0.710345095     0.000007626    -0.000345419    -0.001945066
H         2.991289746    -0.260158466     0.877198335    -0.000489766     0.000191440     0.001149808
H         2.412762242     0.441050369     0.479170686     0.000478997     0.000464873    -0.000232719
4
# Step: 7 Box:    8.0000    8.0000    8.0000 
H         1.565502748    -0.420779986     0.850614725     0.000285493    -0.000830154     0.001151487
H         2.324015070    -0.945203615     0.497987581     0.000357810     0.001341918    -0.001543340
H         2.907069132    -0.266130988     1.003357092    -0.001403782    -0.000459563     0.000593214
H         2.467089944     0.467184668     0.441733180     0.000760480    -0.000052202    -0.000201361
4
# Step: 8 Box:    8.0000    8.0000    8.0000 
H         1.548178695    -0.538989577     0.947542381    -0.000426486    -0.001438206     0.000343941
H         2.345674415    -0.797326392     0.368318569    -0.000607761     0.000940554    -0.000888223
H         2.797127557    -0.294366735     1.030264684    -0.000015817     0.000142415     0.000319154
H         2.572696336     0.465752784     0.447566944     0.001050065     0.000355237     0.000225128
