4
# Step: 0 Box:    8.0000    8.0000    8.0000 
H         1.766930363     0.273815392     0.609278910     0.000021268    -0.000002074    -0.000005754
H         2.691437216     0.320307148     1.255596377    -0.000000971     0.000003415    -0.000001070
H         3.169858468    -0.470776781     0.631219002    -0.000004383     0.000030454    -0.000021483
H         2.319522588    -0.661665569     0.202318881    -0.000004285     0.000007166     0.000004294
4
# Step: 1 Box:    8.0000    8.0000    8.0000 
H         2.008671073     0.313971727     0.574193556     0.000004612     0.000011190    -0.000009350
H         2.670812319     0.246833600     1.171209542     0.000009193    -0.000004085     0.000005554
H         3.116867698    -0.088699234     0.478457321    -0.000007890     0.000026575    -0.000016241
H         2.261984388    -0.639923367     0.246199337     0.000003252    -0.000002969     0.000001109
4
# Step: 2 Box:    8.0000    8.0000    8.0000 
H         1.818495730     0.557593934     0.622779710    -0.000014537     0.000022347     0.000009426
H         2.733640588     0.280115156     1.139758315     0.000000450     0.000013601     0.000004614
H         3.159995778    -0.041293015     0.327104456    -0.000001516    -0.000006788    -0.000018619
H         2.435479124    -0.665130059     0.196069662     0.000023105    -0.000004025    -0.000010913
4
# Step: 3 Box:    8.0000    8.0000    8.0000 
H         1.869355503     0.700876036     0.697422775     0.000012382     0.000007514    -0.000000675
H         2.664577090     0.379741203     1.135407290     0.000002538     0.000000576    -0.000009897
H         3.138562307     0.082743334     0.172980761    -0.000013220     0.000025180     0.000000947
H         2.549488033    -0.782904697     0.126329391     0.000004701    -0.000011824    -0.000003592
