ITEM: TIMESTEP
0
ITEM: NUMBER OF ATOMS
2
 ITEM: BOX BOUNDS xy xz yz pp pp pp
0.0 30.0
0.0 30.0
0.0 30.0
ITEM: ATOMS id type x y z vx vy vz
1 1 3.84562 4.09978 2.41265 -0.0253811 0.0180764 0.0322235
2 1 1.08462 4.70332 4.20254 0.0268401 -0.0291697 -0.0310442
ITEM: TIMESTEP
0
ITEM: NUMBER OF ATOMS
2
 ITEM: BOX BOUNDS xy xz yz pp pp pp
0.0 30.0
0.0 30.0
0.0 30.0
ITEM: ATOMS id type x y z vx vy vz
1 1 3.89255 4.06208 2.34918 -0.0194016 0.0204114 0.0302907
2 1 1.03063 4.75924 4.26899 0.0256397 -0.0281561 -0.0335388
ITEM: TIMESTEP
0
ITEM: NUMBER OF ATOMS
2
 ITEM: BOX BOUNDS xy xz yz pp pp pp
0.0 30.0
0.0 30.0
0.0 30.0
ITEM: ATOMS id type x y z vx vy vz
1 1 3.9315 4.02018 2.29197 -0.0161635 0.020331 0.0275629
2 1 0.983471 4.81124 4.33432 0.0206638 -0.0274028 -0.0314458
ITEM: TIMESTEP
0
ITEM: NUMBER OF ATOMS
2
 ITEM: BOX BOUNDS xy xz yz pp pp pp
0.0 30.0
0.0 30.0
0.0 30.0
ITEM: ATOMS id type x y z vx vy vz
1 1 3.96005 3.98379 2.2392 -0.0146736 0.0171344 0.0250801
2 1 0.944766 4.86278 4.39458 0.0200249 -0.023631 -0.0268972
ITEM: TIMESTEP
0
ITEM: NUMBER OF ATOMS
2
 ITEM: BOX BOUNDS xy xz yz pp pp pp
0.0 30.0
0.0 30.0
0.0 30.0
ITEM: ATOMS id type x y z vx vy vz
1 1 3.98113 3.95599 2.18889 -0.00823551 0.011158 0.0253169
2 1 0.908658 4.90594 4.44258 0.0167426 -0.0189657 -0.0216874
ITEM: TIMESTEP
0
ITEM: NUMBER OF ATOMS
2
 ITEM: BOX BOUNDS xy xz yz pp pp pp
0.0 30.0
0.0 30.0
0.0 30.0
ITEM: ATOMS id type x y z vx vy vz
1 1 3.99868 3.93254 2.1344 -0.00909227 0.0102015 0.0279783
2 1 0.877376 4.94117 4.486 0.0143371 -0.0166862 -0.0220253
ITEM: TIMESTEP
0
ITEM: NUMBER OF ATOMS
2
 ITEM: BOX BOUNDS xy xz yz pp pp pp
0.0 30.0
0.0 30.0
0.0 30.0
ITEM: ATOMS id type x y z vx vy vz
1 1 4.01988 3.91321 2.0786 -0.0114618 0.00720385 0.0267115
2 1 0.853933 4.97439 4.52345 0.00821589 -0.0150577 -0.0174115
ITEM: TIMESTEP
0
ITEM: NUMBER OF ATOMS
2
 ITEM: BOX BOUNDS xy xz yz pp pp pp
0.0 30.0
0.0 30.0
0.0 30.0
ITEM: ATOMS id type x y z vx vy vz
1 1 4.03895 3.89573 2.03406 -0.00965113 0.00876267 0.0190067
2 1 0.843595 5.00243 4.55618 0.00120961 -0.0132387 -0.0147866
ITEM: TIMESTEP
0
ITEM: NUMBER OF ATOMS
2
 ITEM: BOX BOUNDS xy xz yz pp pp pp
0.0 30.0
0.0 30.0
0.0 30.0
ITEM: ATOMS id type x y z vx vy vz
1 1 4.0563 3.88021 1.99372 -0.0089736 0.00670491 0.0168539
2 1 0.846406 5.02743 4.58607 -0.00299652 -0.0117453 -0.0135072
ITEM: TIMESTEP
0
ITEM: NUMBER OF ATOMS
2
 ITEM: BOX BOUNDS xy xz yz pp pp pp
0.0 30.0
0.0 30.0
0.0 30.0
ITEM: ATOMS id type x y z vx vy vz
1 1 4.07396 3.86943 1.96008 -0.00693643 0.00241613 0.0181862
2 1 0.858468 5.04662 4.61102 -0.00621151 -0.00623533 -0.0129336
ITEM: TIMESTEP
0
ITEM: NUMBER OF ATOMS
2
 ITEM: BOX BOUNDS xy xz yz pp pp pp
0.0 30.0
0.0 30.0
0.0 30.0
ITEM: ATOMS id type x y z vx vy vz
1 1 4.08662 3.86862 1.92217 -0.00335521 -0.000825525 0.0182168
2 1 0.874281 5.06167 4.63738 -0.00854532 -0.00776033 -0.0135954
ITEM: TIMESTEP
0
ITEM: NUMBER OF ATOMS
2
 ITEM: BOX BOUNDS xy xz yz pp pp pp
0.0 30.0
0.0 30.0
0.0 30.0
ITEM: ATOMS id type x y z vx vy vz
1 1 4.08771 3.86761 1.8876 0.000150903 0.000107459 0.0137411
2 1 0.889962 5.07528 4.66319 -0.00945325 -0.00627393 -0.014498
ITEM: TIMESTEP
0
ITEM: NUMBER OF ATOMS
2
 ITEM: BOX BOUNDS xy xz yz pp pp pp
0.0 30.0
0.0 30.0
0.0 30.0
ITEM: ATOMS id type x y z vx vy vz
1 1 4.08349 3.86602 1.8663 0.00520755 0.000853781 0.00832935
2 1 0.908585 5.08237 4.69339 -0.00696378 -0.00337876 -0.0189802
ITEM: TIMESTEP
0
ITEM: NUMBER OF ATOMS
2
 ITEM: BOX BOUNDS xy xz yz pp pp pp
0.0 30.0
0.0 30.0
0.0 30.0
ITEM: ATOMS id type x y z vx vy vz
1 1 4.07106 3.86373 1.84743 0.00626691 0.00165293 0.011294
2 1 0.921071 5.09107 4.72669 -0.00785948 -0.00507929 -0.0119399
ITEM: TIMESTEP
0
ITEM: NUMBER OF ATOMS
2
 ITEM: BOX BOUNDS xy xz yz pp pp pp
0.0 30.0
0.0 30.0
0.0 30.0
ITEM: ATOMS id type x y z vx vy vz
1 1 4.05483 3.85943 1.82332 0.00986687 0.0025727 0.0117663
2 1 0.942572 5.10284 4.7517 -0.0108947 -0.00885713 -0.0152846
ITEM: TIMESTEP
0
ITEM: NUMBER OF ATOMS
2
 ITEM: BOX BOUNDS xy xz yz pp pp pp
0.0 30.0
0.0 30.0
0.0 30.0
ITEM: ATOMS id type x y z vx vy vz
1 1 4.03411 3.84952 1.79858 0.0124122 0.0058207 0.0128094
2 1 0.965477 5.12009 4.78294 -0.0124122 -0.0058207 -0.0128094
ITEM: TIMESTEP
0
ITEM: NUMBER OF ATOMS
2
 ITEM: BOX BOUNDS xy xz yz pp pp pp
0.0 30.0
0.0 30.0
0.0 30.0
ITEM: ATOMS id type x y z vx vy vz
1 1 4.00718 3.83817 1.77476 -0.0129706 -0.00316623 -0.0104447
2 1 0.995688 5.13194 4.8064 0.0197641 0.00566776 0.0101569
ITEM: TIMESTEP
0
ITEM: NUMBER OF ATOMS
2
 ITEM: BOX BOUNDS xy xz yz pp pp pp
0.0 30.0
0.0 30.0
0.0 30.0
ITEM: ATOMS id type x y z vx vy vz
1 1 3.97715 3.8331 1.75233 -0.0143236 -0.00462845 -0.0102306
2 1 1.04136 5.14452 4.82671 0.0237512 0.00442634 0.00915531
ITEM: TIMESTEP
0
ITEM: NUMBER OF ATOMS
2
 ITEM: BOX BOUNDS xy xz yz pp pp pp
0.0 30.0
0.0 30.0
0.0 30.0
ITEM: ATOMS id type x y z vx vy vz
1 1 3.94375 3.82397 1.73338 -0.0201117 -0.00213828 -0.00998025
2 1 1.0913 5.15434 4.83923 0.0284469 0.00344415 0.00563195
ITEM: TIMESTEP
0
ITEM: NUMBER OF ATOMS
2
 ITEM: BOX BOUNDS xy xz yz pp pp pp
0.0 30.0
0.0 30.0
0.0 30.0
ITEM: ATOMS id type x y z vx vy vz
1 1 3.90393 3.81902 1.71607 -0.0186569 -0.00088369 -0.00750945
2 1 1.15028 5.16003 4.85101 0.0288196 0.00294545 0.00608384
ITEM: TIMESTEP
0
ITEM: NUMBER OF ATOMS
2
 ITEM: BOX BOUNDS xy xz yz pp pp pp
0.0 30.0
0.0 30.0
0.0 30.0
ITEM: ATOMS id type x y z vx vy vz
1 1 3.86631 3.81086 1.70603 -0.0195006 -0.00674275 -0.000888128
2 1 1.21036 5.16418 4.8589 0.03001 0.00221798 0.00255642
ITEM: TIMESTEP
0
ITEM: NUMBER OF ATOMS
2
 ITEM: BOX BOUNDS xy xz yz pp pp pp
0.0 30.0
0.0 30.0
0.0 30.0
ITEM: ATOMS id type x y z vx vy vz
1 1 3.83223 3.79776 1.70712 -0.0164742 -0.00772012 -0.000433797
2 1 1.2748 5.17114 4.86502 0.0366469 0.00400628 0.00526049
ITEM: TIMESTEP
0
ITEM: NUMBER OF ATOMS
2
 ITEM: BOX BOUNDS xy xz yz pp pp pp
0.0 30.0
0.0 30.0
0.0 30.0
ITEM: ATOMS id type x y z vx vy vz
1 1 3.79642 3.78343 1.7066 -0.0188459 -0.00514508 -0.00132153
2 1 1.3468 5.17733 4.87196 0.0360551 0.0017616 0.000290936
ITEM: TIMESTEP
0
ITEM: NUMBER OF ATOMS
2
 ITEM: BOX BOUNDS xy xz yz pp pp pp
0.0 30.0
0.0 30.0
0.0 30.0
ITEM: ATOMS id type x y z vx vy vz
1 1 3.75412 3.77097 1.70912 -0.0253342 -0.00575233 0.00418824
2 1 1.42517 5.18479 4.87639 0.0427414 0.00586352 0.00132823
ITEM: TIMESTEP
0
ITEM: NUMBER OF ATOMS
2
 ITEM: BOX BOUNDS xy xz yz pp pp pp
0.0 30.0
0.0 30.0
0.0 30.0
ITEM: ATOMS id type x y z vx vy vz
1 1 3.70031 3.76018 1.72263 -0.028426 -0.00460285 0.00791289
2 1 1.51591 5.19523 4.87398 0.0487775 0.00400704 -2.17076e-05
ITEM: TIMESTEP
0
ITEM: NUMBER OF ATOMS
2
 ITEM: BOX BOUNDS xy xz yz pp pp pp
0.0 30.0
0.0 30.0
0.0 30.0
ITEM: ATOMS id type x y z vx vy vz
1 1 3.64435 3.75102 1.74017 -0.0303329 -0.00251932 0.0105191
2 1 1.61713 5.20221 4.87322 0.0532151 0.00185503 -0.00033985
ITEM: TIMESTEP
0
ITEM: NUMBER OF ATOMS
2
 ITEM: BOX BOUNDS xy xz yz pp pp pp
0.0 30.0
0.0 30.0
0.0 30.0
ITEM: ATOMS id type x y z vx vy vz
1 1 3.58172 3.75027 1.7609 -0.0333096 0.00152446 0.0119613
2 1 1.72044 5.20541 4.86684 0.0524791 0.000532341 -0.00431893
ITEM: TIMESTEP
0
ITEM: NUMBER OF ATOMS
2
 ITEM: BOX BOUNDS xy xz yz pp pp pp
0.0 30.0
0.0 30.0
0.0 30.0
ITEM: ATOMS id type x y z vx vy vz
1 1 3.51691 3.75158 1.77939 -0.0328429 -0.000467111 0.00659363
2 1 1.83151 5.20161 4.85816 0.0560182 -0.00632857 -0.0041214
ITEM: TIMESTEP
0
ITEM: NUMBER OF ATOMS
2
 ITEM: BOX BOUNDS xy xz yz pp pp pp
0.0 30.0
0.0 30.0
0.0 30.0
ITEM: ATOMS id type x y z vx vy vz
1 1 3.44953 3.7555 1.7989 -0.0340886 0.00404804 0.00865567
2 1 1.9423 5.18495 4.8427 0.0570174 -0.00878063 -0.0102214
ITEM: TIMESTEP
0
ITEM: NUMBER OF ATOMS
2
 ITEM: BOX BOUNDS xy xz yz pp pp pp
0.0 30.0
0.0 30.0
0.0 30.0
ITEM: ATOMS id type x y z vx vy vz
1 1 3.38368 3.76053 1.8218 -0.0337081 0.00143619 0.0140874
2 1 2.06127 5.16255 4.81755 0.0603216 -0.0139284 -0.0139679
ITEM: TIMESTEP
0
ITEM: NUMBER OF ATOMS
2
 ITEM: BOX BOUNDS xy xz yz pp pp pp
0.0 30.0
0.0 30.0
0.0 30.0
ITEM: ATOMS id type x y z vx vy vz
1 1 3.31849 3.76015 1.84644 -0.0296469 0.00017019 0.0131745
2 1 2.18217 5.13405 4.78903 0.0636271 -0.0144625 -0.015374
