4
# Step: 0 Box:    8.0000    8.0000    8.0000 
H         2.081623394     0.390277475     0.864493780    -0.000054142    -0.000090688    -0.000126638
H         2.984795369     0.524539343     0.588267219     0.001031440     0.000088016    -0.000408389
H         3.105254625    -0.445061122     0.561250232    -0.000681756    -0.000100951     0.000682843
H         2.163429432    -0.571249325     0.664674481    -0.000295542     0.000103623    -0.000147816
4
# Step: 1 Box:    8.0000    8.0000    8.0000 
H         2.073266192     0.411487702     0.842923748     0.000508623     0.000592002    -0.000447842
H         3.050825856     0.523851743     0.561958086    -0.000365103    -0.000571687     0.000112736
H         3.138239460    -0.485687663     0.612152002     0.000168681    -0.000319574     0.000326023
H         2.072771312    -0.551145411     0.661651876    -0.000312200     0.000299260     0.000009083
4
# Step: 2 Box:    8.0000    8.0000    8.0000 
H         2.095542199     0.477364972     0.795521323    -0.000410308     0.000566452    -0.000342322
H         3.057340320     0.464933764     0.572177841     0.000728705    -0.000155037    -0.000027773
H         3.053669435    -0.516263345     0.645118851    -0.000308862    -0.000580905     0.000255744
H         2.128550866    -0.527529020     0.665867697    -0.000009535     0.000169490     0.000114351
4
# Step: 3 Box:    8.0000    8.0000    8.0000 
H         2.093216277     0.532726070     0.742181000     0.000651384     0.000269437    -0.000674948
H         3.100751535     0.445022749     0.585172476     0.000080253    -0.000334884     0.000300234
H         3.102892226    -0.568328960     0.662752528    -0.000433643     0.000107935     0.000087427
H         2.038242782    -0.510913488     0.688579708    -0.000297994    -0.000042488     0.000287287
4
# Step: 4 Box:    8.0000    8.0000    8.0000 
H         2.162492587     0.538783052     0.657862555     0.000263375     0.000093892    -0.000868337
H         3.132843637     0.432207819     0.626216800     0.000366186     0.000026956     0.000485179
H         2.986827900    -0.558166342     0.664045478     0.000045202    -0.000455012    -0.000162783
H         2.052938696    -0.514318158     0.730560879    -0.000674763     0.000334165     0.000545941
4
# Step: 5 Box:    8.0000    8.0000    8.0000 
H         2.162961009     0.559995906     0.546036106     0.000151239     0.000126621    -0.001165789
H         3.163648566     0.393089568     0.699028364     0.000109137    -0.000662592     0.000809909
H         3.027513154    -0.600784257     0.629386029    -0.000874469     0.000121692    -0.000292561
H         1.980980091    -0.453794847     0.804235214     0.000614093     0.000414279     0.000648441
4
# Step: 6 Box:    8.0000    8.0000    8.0000 
H         2.239058460     0.571381213     0.412323843     0.000891733     0.000260368    -0.001334710
H         3.117327450     0.345396368     0.793583261    -0.000591003    -0.000291816     0.000919717
H         2.921226285    -0.604591444     0.575709019     0.000090652    -0.000385565    -0.000920982
H         2.057490625    -0.413679766     0.897069589    -0.000391382     0.000417013     0.001335975
4
# Step: 7 Box:    8.0000    8.0000    8.0000 
H         2.331545537     0.624733274     0.257693344     0.001221307     0.000614627    -0.001144303
H         3.107303135     0.294788016     0.866163069     0.000025026    -0.000273309     0.000053833
H         2.895466869    -0.583120706     0.524540915    -0.001370297     0.000678168     0.000448676
H         2.000787279    -0.437894213     1.030288384     0.000123964    -0.001019487     0.000641794
