4
# Step: 0 Box:    8.0000    8.0000    8.0000 
H         2.081623394     0.390277475     0.864493780     0.000054142     0.000090688     0.000126638
H         2.984795369     0.524539343     0.588267219    -0.001031440    -0.000088016     0.000408389
H         3.105254625    -0.445061122     0.561250232     0.000681756     0.000100951    -0.000682843
H         2.163429432    -0.571249325     0.664674481     0.000295542    -0.000103623     0.000147816
4
# Step: 1 Box:    8.0000    8.0000    8.0000 
H         1.991333906     0.371201623     0.897580763    -0.000721786    -0.000294359     0.000172696
H         2.998748871     0.566316383     0.606882376     0.000433875     0.000306535     0.000187744
H         3.168043389    -0.433774352     0.483825993    -0.000324591     0.000452889    -0.000583320
H         2.176976653    -0.605237283     0.690396580     0.000612502    -0.000465065     0.000222880
4
# Step: 2 Box:    8.0000    8.0000    8.0000 
H         2.034568257     0.361760929     0.868319167     0.000327332    -0.000208478    -0.000440848
H         2.924566439     0.560974466     0.674933876    -0.000578899     0.000238116     0.000830867
H         3.129390558    -0.370845472     0.405251987    -0.000042811     0.000474711    -0.001022677
H         2.246577566    -0.653383551     0.730180683     0.000294378    -0.000504349     0.000632658
4
# Step: 3 Box:    8.0000    8.0000    8.0000 
H         1.956814474     0.312057340     0.822030030    -0.000542983    -0.000121025    -0.000480053
H         2.984337394     0.596317184     0.754301900     0.000157304    -0.000470331     0.000669679
H         3.096123471    -0.301308183     0.293513264    -0.000610269     0.000866451    -0.000829088
H         2.297827482    -0.708559970     0.808840517     0.000995948    -0.000275095     0.000639462
4
# Step: 4 Box:    8.0000    8.0000    8.0000 
H         1.969223345     0.361253347     0.769614342    -0.000470285     0.000617003    -0.000512309
H         2.888584483     0.496899282     0.841057814    -0.000385488    -0.000484925     0.000969588
H         3.018523275    -0.236932218     0.209126322    -0.000810995     0.000257455    -0.000766218
H         2.458771717    -0.722714040     0.858887233     0.001666768    -0.000389533     0.000308939
4
# Step: 5 Box:    8.0000    8.0000    8.0000 
H         1.854988400     0.446280878     0.729623445    -0.000380931     0.001095082     0.000073080
H         2.906760072     0.481991399     0.895710836    -0.000725289    -0.000043473    -0.000279253
H         2.946093085    -0.186366811     0.175482247    -0.000371127     0.000529930     0.000318458
H         2.627261262    -0.843399095     0.877869185     0.001477346    -0.001581540    -0.000112286
