1
# Step: 0 Box:       inf    0.0000    0.0000 
H        -0.462982953     0.000000000     0.000000000     0.270684027     0.377086243    -0.421270965
1
# Step: 1 Box:       inf    0.0000    0.0000 
H        -0.456717863     0.000000000     0.000000000     0.267492428     0.377086243    -0.421270965
1
# Step: 2 Box:       inf    0.0000    0.0000 
H        -0.451118153     0.000000000     0.000000000     0.180021080     0.377086243    -0.421270965
1
# Step: 3 Box:       inf    0.0000    0.0000 
H        -0.447740498     0.000000000     0.000000000     0.109160987     0.377086243    -0.421270965
1
# Step: 4 Box:       inf    0.0000    0.0000 
H        -0.444679146     0.000000000     0.000000000     0.109222645     0.377086243    -0.421270965
1
# Step: 5 Box:       inf    0.0000    0.0000 
H        -0.442734187     0.000000000     0.000000000     0.034072521     0.377086243    -0.421270965
1
# Step: 6 Box:       inf    0.0000    0.0000 
H        -0.442350176     0.000000000     0.000000000    -0.005430343     0.377086243    -0.421270965
1
# Step: 7 Box:       inf    0.0000    0.0000 
H        -0.443253147     0.000000000     0.000000000    -0.028715096     0.377086243    -0.421270965
1
# Step: 8 Box:       inf    0.0000    0.0000 
H        -0.444589794     0.000000000     0.000000000    -0.060641381     0.377086243    -0.421270965
1
# Step: 9 Box:       inf    0.0000    0.0000 
H        -0.446631413     0.000000000     0.000000000    -0.092053983     0.377086243    -0.421270965
1
# Step: 10 Box:       inf    0.0000    0.0000 
H        -0.449478460     0.000000000     0.000000000    -0.116380342     0.377086243    -0.421270965
1
# Step: 11 Box:       inf    0.0000    0.0000 
H        -0.453032420     0.000000000     0.000000000    -0.168418202     0.377086243    -0.421270965
1
# Step: 12 Box:       inf    0.0000    0.0000 
H        -0.457442814     0.000000000     0.000000000    -0.208687372     0.377086243    -0.421270965
1
# Step: 13 Box:       inf    0.0000    0.0000 
H        -0.462269348     0.000000000     0.000000000    -0.178992339     0.377086243    -0.421270965
1
# Step: 14 Box:       inf    0.0000    0.0000 
H        -0.467518902     0.000000000     0.000000000    -0.228698368     0.377086243    -0.421270965
1
# Step: 15 Box:       inf    0.0000    0.0000 
H        -0.474423390     0.000000000     0.000000000    -0.312673653     0.377086243    -0.421270965
1
# Step: 16 Box:       inf    0.0000    0.0000 
H        -0.483483313     0.000000000     0.000000000    -0.391294682     0.377086243    -0.421270965
1
# Step: 17 Box:       inf    0.0000    0.0000 
H        -0.493935353     0.000000000     0.000000000    -0.438823355     0.377086243    -0.421270965
1
# Step: 18 Box:       inf    0.0000    0.0000 
H        -0.505483986     0.000000000     0.000000000    -0.476818514     0.377086243    -0.421270965
1
# Step: 19 Box:       inf    0.0000    0.0000 
H        -0.517291701     0.000000000     0.000000000    -0.482238046     0.377086243    -0.421270965
1
# Step: 20 Box:       inf    0.0000    0.0000 
H        -0.530454194     0.000000000     0.000000000    -0.551490814     0.377086243    -0.421270965
1
# Step: 21 Box:       inf    0.0000    0.0000 
H        -0.544944695     0.000000000     0.000000000    -0.614868765     0.377086243    -0.421270965
1
# Step: 22 Box:       inf    0.0000    0.0000 
H        -0.560411780     0.000000000     0.000000000    -0.625729474     0.377086243    -0.421270965
1
# Step: 23 Box:       inf    0.0000    0.0000 
H        -0.576386183     0.000000000     0.000000000    -0.654526168     0.377086243    -0.421270965
1
# Step: 24 Box:       inf    0.0000    0.0000 
H        -0.593268113     0.000000000     0.000000000    -0.683961384     0.377086243    -0.421270965
1
# Step: 25 Box:       inf    0.0000    0.0000 
H        -0.610743180     0.000000000     0.000000000    -0.750372727     0.377086243    -0.421270965
