1
# Step: 0 Box:       inf    0.0000    0.0000 
H        -0.576697412     0.000000000     0.000000000    -0.202939866    -0.112736412     0.217653273
1
# Step: 1 Box:       inf    0.0000    0.0000 
H        -0.581661531     0.000000000     0.000000000    -0.200231668    -0.112736412     0.217653273
1
# Step: 2 Box:       inf    0.0000    0.0000 
H        -0.587251227     0.000000000     0.000000000    -0.254387684    -0.112736412     0.217653273
1
# Step: 3 Box:       inf    0.0000    0.0000 
H        -0.593426103     0.000000000     0.000000000    -0.276906209    -0.112736412     0.217653273
1
# Step: 4 Box:       inf    0.0000    0.0000 
H        -0.600640488     0.000000000     0.000000000    -0.294714476    -0.112736412     0.217653273
1
# Step: 5 Box:       inf    0.0000    0.0000 
H        -0.608121725     0.000000000     0.000000000    -0.308127449    -0.112736412     0.217653273
1
# Step: 6 Box:       inf    0.0000    0.0000 
H        -0.616369126     0.000000000     0.000000000    -0.359821021    -0.112736412     0.217653273
1
# Step: 7 Box:       inf    0.0000    0.0000 
H        -0.625918238     0.000000000     0.000000000    -0.393179838    -0.112736412     0.217653273
1
# Step: 8 Box:       inf    0.0000    0.0000 
H        -0.635619244     0.000000000     0.000000000    -0.403596929    -0.112736412     0.217653273
1
# Step: 9 Box:       inf    0.0000    0.0000 
H        -0.646300077     0.000000000     0.000000000    -0.449741437    -0.112736412     0.217653273
1
# Step: 10 Box:       inf    0.0000    0.0000 
H        -0.658325604     0.000000000     0.000000000    -0.460425259    -0.112736412     0.217653273
1
# Step: 11 Box:       inf    0.0000    0.0000 
H        -0.670163253     0.000000000     0.000000000    -0.513557096    -0.112736412     0.217653273
1
# Step: 12 Box:       inf    0.0000    0.0000 
H        -0.683606338     0.000000000     0.000000000    -0.579585025    -0.112736412     0.217653273
1
# Step: 13 Box:       inf    0.0000    0.0000 
H        -0.697883568     0.000000000     0.000000000    -0.560176097    -0.112736412     0.217653273
1
# Step: 14 Box:       inf    0.0000    0.0000 
H        -0.712586213     0.000000000     0.000000000    -0.627806480    -0.112736412     0.217653273
