1
# Step: 0 Box:       inf    0.0000    0.0000 
H        -0.576697412     0.000000000     0.000000000     0.202939866     0.112736412    -0.217653273
1
# Step: 1 Box:       inf    0.0000    0.0000 
H        -0.572606943     0.000000000     0.000000000     0.147483995     0.112736412    -0.217653273
1
# Step: 2 Box:       inf    0.0000    0.0000 
H        -0.569130536     0.000000000     0.000000000     0.115639326     0.112736412    -0.217653273
1
# Step: 3 Box:       inf    0.0000    0.0000 
H        -0.566841173     0.000000000     0.000000000     0.038184739     0.112736412    -0.217653273
1
# Step: 4 Box:       inf    0.0000    0.0000 
H        -0.566764128     0.000000000     0.000000000    -0.012306298     0.112736412    -0.217653273
1
# Step: 5 Box:       inf    0.0000    0.0000 
H        -0.568411692     0.000000000     0.000000000    -0.110268769     0.112736412    -0.217653273
1
# Step: 6 Box:       inf    0.0000    0.0000 
H        -0.571317891     0.000000000     0.000000000    -0.116338831     0.112736412    -0.217653273
1
# Step: 7 Box:       inf    0.0000    0.0000 
H        -0.575998940     0.000000000     0.000000000    -0.248758635     0.112736412    -0.217653273
1
# Step: 8 Box:       inf    0.0000    0.0000 
H        -0.582447462     0.000000000     0.000000000    -0.258819045     0.112736412    -0.217653273
1
# Step: 9 Box:       inf    0.0000    0.0000 
H        -0.590385952     0.000000000     0.000000000    -0.368034984     0.112736412    -0.217653273
1
# Step: 10 Box:       inf    0.0000    0.0000 
H        -0.600084923     0.000000000     0.000000000    -0.392032321     0.112736412    -0.217653273
1
# Step: 11 Box:       inf    0.0000    0.0000 
H        -0.610298100     0.000000000     0.000000000    -0.423620992     0.112736412    -0.217653273
1
# Step: 12 Box:       inf    0.0000    0.0000 
H        -0.621476853     0.000000000     0.000000000    -0.465727472     0.112736412    -0.217653273
1
# Step: 13 Box:       inf    0.0000    0.0000 
H        -0.632829625     0.000000000     0.000000000    -0.446402476     0.112736412    -0.217653273
1
# Step: 14 Box:       inf    0.0000    0.0000 
H        -0.644299815     0.000000000     0.000000000    -0.476120481     0.112736412    -0.217653273
1
# Step: 15 Box:       inf    0.0000    0.0000 
H        -0.656184533     0.000000000     0.000000000    -0.495967372     0.112736412    -0.217653273
1
# Step: 16 Box:       inf    0.0000    0.0000 
H        -0.668580706     0.000000000     0.000000000    -0.506125640     0.112736412    -0.217653273
1
# Step: 17 Box:       inf    0.0000    0.0000 
H        -0.681194685     0.000000000     0.000000000    -0.527165984     0.112736412    -0.217653273
1
# Step: 18 Box:       inf    0.0000    0.0000 
H        -0.695869547     0.000000000     0.000000000    -0.609521857     0.112736412    -0.217653273
1
# Step: 19 Box:       inf    0.0000    0.0000 
H        -0.712069188     0.000000000     0.000000000    -0.698840774     0.112736412    -0.217653273
