4
# Step: 0 Box:    8.0000    8.0000    8.0000 
H         2.488329954     0.286969840     1.135506017     0.000792911    -0.000062884    -0.000777311
H         2.381849592    -0.658002209     0.803126052     0.000342845     0.000446106    -0.000191125
H         1.915394403    -0.284569901     0.010819086    -0.000106608    -0.000123231     0.000542465
H         1.613452437     0.553373600     0.501120904    -0.001029148    -0.000259991     0.000425971
4
# Step: 1 Box:    8.0000    8.0000    8.0000 
H         2.604137209     0.312607463     1.062833827     0.001343778     0.000762151    -0.000521229
H         2.399067339    -0.617826389     0.817140211    -0.000136230     0.000023759     0.000164854
H         1.884694336    -0.273076658     0.011624627    -0.000291921     0.000218708    -0.000259454
H         1.511127501     0.476066914     0.558973393    -0.000915627    -0.001004619     0.000615830
4
# Step: 2 Box:    8.0000    8.0000    8.0000 
H         2.753557533     0.362484241     0.995199325     0.001179753    -0.000160539    -0.000848005
H         2.366549627    -0.569770341     0.811068409    -0.000057009     0.000889399     0.000061609
H         1.884443576    -0.260256265     0.017682619     0.000106321     0.000254836     0.000265838
H         1.394475649     0.365313694     0.626621706    -0.001229066    -0.000983696     0.000520559
4
# Step: 3 Box:    8.0000    8.0000    8.0000 
H         2.870494883     0.347526924     0.883228599     0.001110595     0.000130652    -0.001038776
H         2.402270633    -0.526268685     0.856662575     0.000383065    -0.000054532     0.000352449
H         1.881021101    -0.191182982     0.047487651    -0.000025654     0.000683920     0.000460564
H         1.245239768     0.267696073     0.663193234    -0.001468006    -0.000760040     0.000225763
