4
# Step: 0 Box:    8.0000    8.0000    8.0000 
H         1.480517056     0.074178113     0.164400573     0.000003657    -0.000003356    -0.000009061
H         2.228370352     0.181766677     0.922727316    -0.000010509    -0.000022546    -0.000015867
H         2.372823887    -0.839625248     0.840968573    -0.000002176     0.000008853    -0.000010625
H         2.033116882    -0.837393370    -0.224974207     0.000003425    -0.000007931     0.000019352
4
# Step: 1 Box:    8.0000    8.0000    8.0000 
H         1.516432909    -0.030875364     0.059715855    -0.000002591    -0.000014787    -0.000016704
H         2.143332922     0.118441219     0.793616229     0.000000753     0.000007255     0.000001196
H         2.345565996    -0.884870473     0.740010825     0.000003160    -0.000009691     0.000009547
H         2.054752266    -0.867836181    -0.048512446    -0.000006086    -0.000004019    -0.000007815
4
# Step: 2 Box:    8.0000    8.0000    8.0000 
H         1.523594593    -0.098226877    -0.048236519     0.000010650    -0.000006290     0.000001749
H         2.127321453     0.082719148     0.822920295    -0.000010784     0.000004374    -0.000004622
H         2.371659898    -0.822060435     0.838497498    -0.000003851    -0.000001826    -0.000011512
H         1.991374923    -1.033249593    -0.201744424    -0.000000088    -0.000014417     0.000002608
4
# Step: 3 Box:    8.0000    8.0000    8.0000 
H         1.608049057    -0.121325633    -0.087866102    -0.000001088    -0.000002092    -0.000022690
H         1.988222904     0.065301946     0.711379140     0.000000370    -0.000012044     0.000010295
H         2.383290492    -0.909143154     0.732572326     0.000000183     0.000009312    -0.000005795
H         1.995014975    -1.081190535    -0.058496286    -0.000002927    -0.000010615     0.000008176
4
# Step: 4 Box:    8.0000    8.0000    8.0000 
H         1.656278752    -0.163771578    -0.298553782     0.000016377    -0.000005184    -0.000000025
H         1.915331125    -0.021700798     0.805462301    -0.000015609     0.000000305     0.000000446
H         2.506235845    -0.838985344     0.749460438     0.000003685     0.000002338    -0.000016470
H         1.863200991    -1.171390504    -0.055733490    -0.000007338    -0.000010319     0.000007709
4
# Step: 5 Box:    8.0000    8.0000    8.0000 
H         1.788849613    -0.072938414    -0.204315740     0.000010026     0.000013398    -0.000008563
H         1.809208763    -0.127714625     0.643418607    -0.000013281    -0.000006244     0.000001180
H         2.456125238    -0.782882675     0.595467711     0.000003002     0.000002547    -0.000010961
H         1.859275430    -1.335307339     0.086295503    -0.000002078    -0.000020097     0.000011602
4
# Step: 6 Box:    8.0000    8.0000    8.0000 
H         1.796712885     0.135279472    -0.394153393    -0.000005381     0.000017449    -0.000005436
H         1.738376074    -0.175804800     0.668523880     0.000002349    -0.000000453    -0.000012626
H         2.497294336    -0.830233397     0.596317957    -0.000006210    -0.000010548     0.000003016
H         1.858645534    -1.548085533     0.185320971     0.000007341    -0.000014925     0.000009548
