4
# Step: 0 Box:    8.0000    8.0000    8.0000 
H         2.281081625     0.075651502     1.199077131     0.001299772     0.000264219     0.000412670
H         2.909932823    -0.043153303     0.422634761     0.000057332    -0.000429021     0.000049350
H         2.088721582    -0.203300456    -0.194905884    -0.000493133    -0.000208017    -0.001495679
H         1.443697726     0.212925756     0.490474836    -0.000863971     0.000372819     0.001033659
4
# Step: 1 Box:    8.0000    8.0000    8.0000 
H         2.398677021     0.108053828     1.234907441     0.000755410     0.000315500     0.000052742
H         2.857070368    -0.111497593     0.350535294    -0.000469512    -0.000713965    -0.000863737
H         2.024869190    -0.146802656    -0.175605775    -0.000856354     0.000899344     0.000991875
H         1.442817176     0.192369920     0.507443884     0.000570456    -0.000500878    -0.000180880
4
# Step: 2 Box:    8.0000    8.0000    8.0000 
H         2.461056841     0.145394614     1.182225712     0.000166486     0.000512325    -0.000736400
H         2.838975239    -0.186258335     0.334335363    -0.000002273    -0.000914255    -0.000355514
H         1.962154204    -0.095841853    -0.240131226    -0.000169329     0.000469196    -0.000670540
H         1.461247471     0.178829073     0.640850995     0.000005116    -0.000067266     0.001762454
4
# Step: 3 Box:    8.0000    8.0000    8.0000 
H         2.465531935     0.214042775     1.072102543     0.000438209     0.000477470    -0.001427487
H         2.792850103    -0.300116451     0.251640594    -0.000997451    -0.000795010    -0.000039609
H         1.949949669     0.004926441    -0.123210347    -0.000185844     0.001131391     0.000876484
H         1.515102048     0.123270734     0.716748054     0.000745086    -0.000813851     0.000590613
4
# Step: 4 Box:    8.0000    8.0000    8.0000 
H         2.568532597     0.286499716     0.973825440     0.001325818     0.001070100    -0.000066426
H         2.670331017    -0.391019306     0.269730073    -0.001142520    -0.000959648    -0.000611487
H         1.922425546     0.121453372    -0.165046322    -0.000329369     0.000618091     0.000284152
H         1.562144597     0.025189718     0.838771653     0.000146072    -0.000728543     0.000393761
4
# Step: 5 Box:    8.0000    8.0000    8.0000 
H         2.763026608     0.322869472     0.935172028     0.002088717    -0.000707461    -0.000998900
H         2.582571434    -0.398440026     0.225114835     0.000060237     0.000745934     0.000472699
H         1.851153721     0.130601231    -0.046057642    -0.001045648     0.000187949     0.000193984
H         1.526681993    -0.012907178     0.803051623    -0.001103306    -0.000226422     0.000332217
4
# Step: 6 Box:    8.0000    8.0000    8.0000 
H         2.994682307     0.289846971     0.854201097     0.001998908     0.000426878    -0.000361622
H         2.624589650    -0.384646700     0.210015993    -0.000072321    -0.000479645    -0.001220234
H         1.762517574     0.165672265    -0.049147936    -0.000220163    -0.000058511     0.001247103
H         1.341644225    -0.028749036     0.902211691    -0.001706424     0.000111277     0.000334753
