4
# Step: 0 Box:    8.0000    8.0000    8.0000 
H         1.871077678     0.705311491     0.649162726    -0.000006220     0.000001241     0.000013155
H         2.482335477     0.153760304     1.143640801     0.000006971     0.000005511    -0.000001302
H         2.772924133    -0.197818122     0.335536895     0.000006323     0.000010373     0.000004320
H         1.785975602    -0.394219401    -0.031032040     0.000009748     0.000002906    -0.000000140
4
# Step: 1 Box:    8.0000    8.0000    8.0000 
H         1.784077790     0.780749065     0.744815658    -0.000006032     0.000008361     0.000010715
H         2.498131444     0.167672497     1.213840199     0.000007916     0.000000718    -0.000000942
H         2.832568820    -0.128782365     0.248562259    -0.000003256     0.000010575     0.000004475
H         1.964077124    -0.354292681     0.048821242     0.000016198    -0.000002000    -0.000000117
4
# Step: 2 Box:    8.0000    8.0000    8.0000 
H         1.828020522     0.805288532     0.838359557     0.000010204    -0.000001286     0.000002173
H         2.516149230     0.185706423     1.226982905     0.000000954     0.000001289     0.000015344
H         2.891754731     0.084947607     0.307485376    -0.000002002     0.000022430    -0.000002331
H         1.993039954    -0.431851630     0.026280225     0.000004188    -0.000006543    -0.000002468
