ITEM: TIMESTEP
0
ITEM: NUMBER OF ATOMS
2
 ITEM: BOX BOUNDS xy xz yz pp pp pp
0.0 30.0
0.0 30.0
0.0 30.0
ITEM: ATOMS id type x y z vx vy vz
1 1 6.09815 28.4938 29.6089 0.00195221 -0.014292 -0.0086251
2 1 3.20657 0.0829984 0.555323 0.000589574 0.0109695 0.00354067
ITEM: TIMESTEP
0
ITEM: NUMBER OF ATOMS
2
 ITEM: BOX BOUNDS xy xz yz pp pp pp
0.0 30.0
0.0 30.0
0.0 30.0
ITEM: ATOMS id type x y z vx vy vz
1 1 6.10315 28.4653 29.5866 -0.000487736 -0.014545 -0.0115965
2 1 3.20932 0.104741 0.552168 0.000148302 0.00920815 -0.00226211
ITEM: TIMESTEP
0
ITEM: NUMBER OF ATOMS
2
 ITEM: BOX BOUNDS xy xz yz pp pp pp
0.0 30.0
0.0 30.0
0.0 30.0
ITEM: ATOMS id type x y z vx vy vz
1 1 6.10172 28.4389 29.5595 7.75236e-05 -0.0122438 -0.0144024
2 1 3.21998 0.124494 0.543216 0.00666202 0.00761625 -0.00467417
ITEM: TIMESTEP
0
ITEM: NUMBER OF ATOMS
2
 ITEM: BOX BOUNDS xy xz yz pp pp pp
0.0 30.0
0.0 30.0
0.0 30.0
ITEM: ATOMS id type x y z vx vy vz
1 1 6.10094 28.4127 29.532 0.000517314 -0.0122121 -0.0123731
2 1 3.22343 0.136573 0.52959 0.000630633 0.00632777 -0.00740624
ITEM: TIMESTEP
0
ITEM: NUMBER OF ATOMS
2
 ITEM: BOX BOUNDS xy xz yz pp pp pp
0.0 30.0
0.0 30.0
0.0 30.0
ITEM: ATOMS id type x y z vx vy vz
1 1 6.09918 28.3938 29.5121 -0.00119581 -0.00633026 -0.0104642
2 1 3.22299 0.147206 0.518471 -0.000522757 0.0027646 -0.00670725
ITEM: TIMESTEP
0
ITEM: NUMBER OF ATOMS
2
 ITEM: BOX BOUNDS xy xz yz pp pp pp
0.0 30.0
0.0 30.0
0.0 30.0
ITEM: ATOMS id type x y z vx vy vz
1 1 6.09529 28.3811 29.484 -0.000946664 -0.00498862 -0.0156759
2 1 3.22911 0.151692 0.502935 0.00503189 0.00108798 -0.00852516
ITEM: TIMESTEP
0
ITEM: NUMBER OF ATOMS
2
 ITEM: BOX BOUNDS xy xz yz pp pp pp
0.0 30.0
0.0 30.0
0.0 30.0
ITEM: ATOMS id type x y z vx vy vz
1 1 6.09511 28.375 29.4549 0.00149925 -0.00276653 -0.012847
2 1 3.24361 0.144474 0.480748 0.0102716 -0.00452177 -0.0107899
ITEM: TIMESTEP
0
ITEM: NUMBER OF ATOMS
2
 ITEM: BOX BOUNDS xy xz yz pp pp pp
0.0 30.0
0.0 30.0
0.0 30.0
ITEM: ATOMS id type x y z vx vy vz
1 1 6.09569 28.3709 29.4264 -0.000394263 -0.000167368 -0.0142482
2 1 3.2708 0.137292 0.462571 0.0160686 -0.00393394 -0.00850312
ITEM: TIMESTEP
0
ITEM: NUMBER OF ATOMS
2
 ITEM: BOX BOUNDS xy xz yz pp pp pp
0.0 30.0
0.0 30.0
0.0 30.0
ITEM: ATOMS id type x y z vx vy vz
1 1 6.09422 28.3805 29.3985 0.000965888 0.00810778 -0.0127757
2 1 3.30854 0.127681 0.446409 0.0227814 -0.00747827 -0.00777308
ITEM: TIMESTEP
0
ITEM: NUMBER OF ATOMS
2
 ITEM: BOX BOUNDS xy xz yz pp pp pp
0.0 30.0
0.0 30.0
0.0 30.0
ITEM: ATOMS id type x y z vx vy vz
1 1 6.09648 28.3963 29.3789 -0.00166827 0.00916225 -0.0080335
2 1 3.35291 0.111475 0.426248 0.0212001 -0.00601177 -0.0131419
