LAMMPS (2 Aug 2023)
OMP_NUM_THREADS environment is not set. Defaulting to 1 thread. (src/comm.cpp:98)
  using 1 OpenMP thread(s) per MPI task
variable 	subcycles index 3
units real
atom_style full

dimension 3
boundary p p p

bond_style hybrid harmonic
angle_style hybrid harmonic
dihedral_style hybrid fourier
improper_style cvff
special_bonds lj 0.0 0.0 0.5 coul 0.0 0.0 0.8333333333
pair_style lj/cut/coul/long 10.0 10.0
pair_modify mix arithmetic tail yes

read_data lammps_input/lammps.data
Reading data file ...
  orthogonal box = (0 0 0) to (21 21 21)
  1 by 1 by 1 MPI processor grid
  reading atoms ...
  16 atoms
  scanning bonds ...
  4 = max bonds/atom
  scanning angles ...
  6 = max angles/atom
  scanning dihedrals ...
  17 = max dihedrals/atom
  reading bonds ...
  16 bonds
  reading angles ...
  31 angles
  reading dihedrals ...
  52 dihedrals
Finding 1-2 1-3 1-4 neighbors ...
  special bond factors lj:    0        0        0.5
  special bond factors coul:  0        0        0.8333333333
     4 = max # of 1-2 neighbors
     6 = max # of 1-3 neighbors
    12 = max # of 1-4 neighbors
    15 = max # of special neighbors
  special bonds CPU = 0.000 seconds
  read_data CPU = 0.003 seconds

fix 1 all nve
fix 2 all langevin 300.0 300.0 200.0 48279

thermo 10
thermo_style custom ke pe etotal temp

dump 1 all custom ${subcycles} traj.lammpstrj id x y z vx vy vz
dump 1 all custom 3 traj.lammpstrj id x y z vx vy vz

kspace_style pppm 1e-4
run 1000
PPPM initialization ...
  using 12-bit tables for long-range coulomb (src/kspace.cpp:342)
  G vector (1/distance) = 0.14355902
  grid = 3 3 3
  stencil order = 5
  estimated absolute RMS force accuracy = 0.026371249
  estimated relative force accuracy = 7.9416233e-05
  using double precision FFTW3
  3d grid and FFT values/proc = 512 27
Generated 6 of 6 mixed pair_coeff terms from arithmetic mixing rule
Neighbor list info ...
  update: every = 1 steps, delay = 0 steps, check = yes
  max neighbors/atom: 2000, page size: 100000
  master list distance cutoff = 12
  ghost atom cutoff = 12
  binsize = 6, bins = 4 4 4
  1 neighbor lists, perpetual/occasional/extra = 1 0 0
  (1) pair lj/cut/coul/long, perpetual
      attributes: half, newton on
      pair build: half/bin/newton
      stencil: half/bin/3d
      bin: standard
Per MPI rank memory allocation (min/avg/max) = 14.64 | 14.64 | 14.64 Mbytes
    KinEng         PotEng         TotEng          Temp
 0              4.4727771      4.4727771      0
 1.9317691      5.1871504      7.1189195      43.204568
 2.6231854      6.5983281      9.2215136      58.66829
 3.8965737      7.7457911      11.642365      87.147981
 5.3609229      8.0198455      13.380768      119.89857
 6.5048975      8.0206674      14.525565      145.48389
 6.5876064      8.2576944      14.845301      147.3337
 6.7902505      10.654583      17.444834      151.86589
 8.6157451      7.7619885      16.377734      192.69359
 7.9609025      8.8364705      16.797373      178.04786
 7.1008458      10.452998      17.553844      158.81244
 7.1824443      10.555668      17.738112      160.63741
 5.9683311      11.925882      17.894213      133.48343
 8.3128698      10.621383      18.934253      185.9197
 7.9104666      11.982027      19.892494      176.91984
 9.1116956      11.894478      21.006173      203.78567
 10.185516      12.193046      22.378562      227.80196
 8.6724456      12.559418      21.231864      193.96172
 6.8003001      15.322345      22.122645      152.09065
 10.272985      14.311041      24.584026      229.75823
 12.320587      12.9943        25.314887      275.55344
 11.946771      13.96031       25.907081      267.19294
 12.199743      12.963601      25.163344      272.85073
 13.706283      12.097204      25.803487      306.54494
 10.818988      14.175549      24.994537      241.96975
 11.247263      13.353691      24.600954      251.54825
 10.099039      12.721899      22.820939      225.8679
 8.7980264      14.68537       23.483397      196.77037
 10.815204      12.843854      23.659058      241.88511
 9.8180815      13.581642      23.399723      219.58419
 9.9957911      13.251854      23.247645      223.55872
 10.999348      13.477109      24.476457      246.00356
 9.0405703      16.062028      25.102599      202.19493
 7.9439244      17.3774        25.321325      177.66813
 10.291847      13.499557      23.791404      230.18009
 9.6329319      14.419235      24.052167      215.44327
 10.769739      12.364762      23.134502      240.86829
 11.454659      13.312287      24.766946      256.18671
 10.218601      16.139312      26.357914      228.54194
 10.390573      15.477493      25.868066      232.38813
 11.974922      13.960551      25.935472      267.82254
 10.546548      11.726547      22.273095      235.87655
 12.816224      9.7827681      22.598993      286.63851
 11.051428      12.526397      23.577825      247.16834
 7.9431725      15.537688      23.48086       177.65132
 9.7855237      14.087876      23.8734        218.85603
 9.541772       13.873701      23.415473      213.40445
 13.005378      13.390328      26.395706      290.86899
 12.036307      14.718991      26.755298      269.19543
 11.094421      17.285647      28.380067      248.12988
 9.940973       17.626284      27.567257      222.3327
 11.956616      16.926264      28.88288       267.41312
 11.421591      16.633027      28.054618      255.44714
 9.4104041      16.459201      25.869605      210.46637
 10.651367      14.611838      25.263206      238.22087
 11.704726      14.946192      26.650919      261.77955
 12.14238       15.07122       27.2136        271.5678
 13.678662      13.914961      27.593624      305.92718
 9.7216073      16.342449      26.064056      217.42652
 12.304921      15.127942      27.432862      275.20306
 10.201252      16.522055      26.723307      228.15391
 10.131012      16.334925      26.465937      226.58297
 11.32481       13.469329      24.794139      253.28261
 9.1212229      16.425883      25.547106      203.99875
 8.4423784      16.912676      25.355055      188.8162
 9.3559974      16.983358      26.339355      209.24955
 10.342006      16.01319       26.355196      231.30192
 12.711576      12.805897      25.517473      284.29803
 10.590673      13.943844      24.534517      236.86342
 14.236996      10.626031      24.863026      318.41446
 11.391836      12.888845      24.280681      254.78166
 11.313748      12.041475      23.355222      253.03519
 11.547305      13.220432      24.767737      258.25877
 10.988502      16.228328      27.21683       245.76097
 10.775547      16.965371      27.740918      240.99819
 13.007669      16.208979      29.216648      290.92024
 11.313297      16.778326      28.091622      253.0251
 11.967933      15.949612      27.917545      267.66624
 9.4816224      18.585506      28.067128      212.05919
 15.119111      12.546365      27.665476      338.14323
 11.170025      16.287017      27.457042      249.8208
 13.501187      16.238943      29.74013       301.95789
 16.091636      14.728645      30.820281      359.89404
 17.076647      12.813712      29.89036       381.92409
 10.551625      19.731594      30.283219      235.9901
 13.690187      14.471992      28.162179      306.18493
 14.454043      16.030963      30.485006      323.2688
 11.230333      18.319627      29.549961      251.1696
 12.182933      16.590747      28.77368       272.47476
 13.82731       15.551239      29.378549      309.25173
 12.147314      17.197808      29.345122      271.67815
 13.548512      14.399396      27.947908      303.01634
 10.543871      16.092609      26.63648       235.81668
 11.585369      15.549748      27.135117      259.11009
 11.361008      16.373678      27.734686      254.09217
 10.325866      16.87488       27.200746      230.94094
 12.347816      13.135356      25.483172      276.16242
 10.295904      15.260248      25.556152      230.27083
 9.1106702      18.736984      27.847654      203.76274
 11.97011       14.225151      26.195261      267.71493
 9.1984281      15.798016      24.996444      205.72547
Loop time of 0.0371361 on 1 procs for 1000 steps with 16 atoms

Performance: 2326.580 ns/day, 0.010 hours/ns, 26928.005 timesteps/s, 430.848 katom-step/s
91.9% CPU use with 1 MPI tasks x 1 OpenMP threads

MPI task timing breakdown:
Section |  min time  |  avg time  |  max time  |%varavg| %total
---------------------------------------------------------------
Pair    | 0.0032063  | 0.0032063  | 0.0032063  |   0.0 |  8.63
Bond    | 0.0059413  | 0.0059413  | 0.0059413  |   0.0 | 16.00
Kspace  | 0.010624   | 0.010624   | 0.010624   |   0.0 | 28.61
Neigh   | 7.758e-05  | 7.758e-05  | 7.758e-05  |   0.0 |  0.21
Comm    | 0.000638   | 0.000638   | 0.000638   |   0.0 |  1.72
Output  | 0.015157   | 0.015157   | 0.015157   |   0.0 | 40.81
Modify  | 0.0010834  | 0.0010834  | 0.0010834  |   0.0 |  2.92
Other   |            | 0.0004087  |            |       |  1.10

Nlocal:             16 ave          16 max          16 min
Histogram: 1 0 0 0 0 0 0 0 0 0
Nghost:            112 ave         112 max         112 min
Histogram: 1 0 0 0 0 0 0 0 0 0
Neighs:            120 ave         120 max         120 min
Histogram: 1 0 0 0 0 0 0 0 0 0

Total # of neighbors = 120
Ave neighs/atom = 7.5
Ave special neighs/atom = 10.75
Neighbor list builds = 4
Dangerous builds = 0
Total wall time: 0:00:00
