ITEM: TIMESTEP
0
ITEM: NUMBER OF ATOMS
16
ITEM: BOX BOUNDS pp pp pp
0.0000000000000000e+00 2.1000000000000000e+01
0.0000000000000000e+00 2.1000000000000000e+01
0.0000000000000000e+00 2.1000000000000000e+01
ITEM: ATOMS id x y z vx vy vz
1 15.163 3.9251 0.0683 0 0 0
5 15.2444 1.4556 1.1682 0 0 0
6 15.4218 1.4928 0.0894 0 0 0
8 17.4641 0.7734 0.2585 0 0 0
9 17.4839 2.9443 0.335 0 0 0
11 17.008 5.0609 0.2213 0 0 0
13 18.5342 3.0536 0.0552 0 0 0
14 17.4309 2.9482 1.4267 0 0 0
15 14.9798 3.9427 1.1466 0 0 0
2 16.6646 4.125 20.7746 0 0 0
3 14.7384 2.6453 20.5341 0 0 0
4 15.0189 0.5873 20.6275 0 0 0
7 17.0986 1.5491 19.7179 0 0 0
10 16.8167 4.1993 19.6949 0 0 0
12 16.9323 1.6082 20.7965 0 0 0
16 14.5795 4.7175 20.5916 0 0 0
ITEM: TIMESTEP
3
ITEM: NUMBER OF ATOMS
16
ITEM: BOX BOUNDS pp pp pp
0.0000000000000000e+00 2.1000000000000000e+01
0.0000000000000000e+00 2.1000000000000000e+01
0.0000000000000000e+00 2.1000000000000000e+01
ITEM: ATOMS id x y z vx vy vz
1 15.1636 3.92362 0.0654312 9.20142e-05 -0.00122924 -0.00153937
5 15.2418 1.4569 1.1632 -0.000998558 0.00149728 -0.000633529
6 15.4214 1.49704 0.0906619 -0.000323255 0.00292216 0.000990345
8 17.4618 0.76972 0.260943 -0.00282984 -0.00105069 -0.0009863
9 17.4839 2.94321 0.336065 -0.000452084 -0.000582304 0.000319943
11 17.0144 5.06175 0.218847 0.00234803 -0.00140421 -0.00103761
13 18.5295 3.05297 0.0522369 -0.00150928 -0.00365133 -0.000679434
14 17.4331 2.94757 1.42287 -0.000398218 -0.00171644 -0.000285856
15 14.98 3.94839 1.14833 -0.00127925 0.00518825 -0.00120837
2 16.667 4.12376 20.7745 0.00130002 -0.000358994 0.000492139
3 14.7371 2.64595 20.5341 -0.000950484 0.000440472 -0.000483117
4 15.0233 0.585293 20.6337 0.00291933 -0.000252049 0.00409679
7 17.1006 1.55458 19.7237 -0.000507514 0.00207083 0.00131132
10 16.8153 4.1948 19.6977 0.00154867 -0.00118118 0.003382
12 16.9308 1.6072 20.7959 -0.000509967 -0.00064437 0.000734951
16 14.5828 4.71816 20.5925 0.000831036 0.00281359 0.00215274
ITEM: TIMESTEP
6
ITEM: NUMBER OF ATOMS
16
ITEM: BOX BOUNDS pp pp pp
0.0000000000000000e+00 2.1000000000000000e+01
0.0000000000000000e+00 2.1000000000000000e+01
0.0000000000000000e+00 2.1000000000000000e+01
ITEM: ATOMS id x y z vx vy vz
1 15.1637 3.9172 0.0592644 0.000198418 -0.00242115 -0.00293726
5 15.2425 1.46001 1.17086 0.000893887 -0.00143801 0.00405045
6 15.4216 1.50725 0.0935365 0.00036088 0.0033416 0.00110268
8 17.4519 0.768361 0.259642 -0.00189843 0.000295996 0.000774716
9 17.4832 2.94093 0.33712 -0.000444065 -0.00098028 0.000801197
11 17.0199 5.05703 0.21961 0.00254976 -0.00256739 -0.000352201
13 18.5246 3.03585 0.0528061 -0.000271634 -0.00470266 0.000910906
14 17.4277 2.94649 1.42732 -0.00174801 -0.000704156 0.00131922
15 14.9687 3.97482 1.13294 -0.00407827 0.0100791 -0.00700753
2 16.6722 4.12281 20.7768 0.0016671 -0.000104389 0.00181546
3 14.7329 2.64861 20.5305 -0.00198729 0.000449452 -0.00173651
4 15.0354 0.587291 20.6545 0.00437398 1.4135e-05 0.00793691
7 17.098 1.55637 19.7257 0.000419853 0.000246411 0.0017084
10 16.8252 4.18905 19.7099 0.00524896 -0.00385888 0.000898166
12 16.9306 1.60349 20.8011 0.000423025 -0.000977161 0.00242451
16 14.5843 4.7346 20.6077 0.00206739 0.00563926 0.00745946
ITEM: TIMESTEP
9
ITEM: NUMBER OF ATOMS
16
ITEM: BOX BOUNDS pp pp pp
0.0000000000000000e+00 2.1000000000000000e+01
0.0000000000000000e+00 2.1000000000000000e+01
0.0000000000000000e+00 2.1000000000000000e+01
ITEM: ATOMS id x y z vx vy vz
1 15.1643 3.91199 0.0505252 -4.87934e-06 -0.00095479 -0.00236448
5 15.2443 1.45964 1.17592 0.000643623 0.00150403 -0.000360106
6 15.4218 1.51819 0.0973906 -0.000455134 0.00435739 0.00137445
8 17.4531 0.769379 0.26466 0.00181924 -0.00182686 0.00304652
9 17.4805 2.93565 0.342227 -0.000842268 -0.00260011 0.00261727
11 17.0303 5.05636 0.219104 0.00275196 0.00172052 0.00109927
13 18.53 3.02653 0.0559187 0.0018661 -0.00131362 0.00114911
14 17.4183 2.94036 1.42725 -0.00512805 -0.00313496 0.000834204
15 14.962 3.99904 1.11599 -0.00133841 0.00287946 -0.00503793
2 16.675 4.12042 20.7858 0.000396932 -0.00169968 0.0035276
3 14.7257 2.64733 20.5241 -0.00276025 -0.000736404 -0.00265596
4 15.0444 0.584902 20.6771 -0.000563966 -0.000915131 0.0064386
7 17.094 1.55035 19.7376 -0.00437135 -0.00602751 0.00313645
10 16.8441 4.176 19.7028 0.00644735 -0.00435064 -0.00037764
12 16.9337 1.60077 20.8064 0.00142999 -0.001023 0.00121612
16 14.5973 4.7421 20.6324 0.0055276 -0.000171906 0.00645657
ITEM: TIMESTEP
12
ITEM: NUMBER OF ATOMS
16
ITEM: BOX BOUNDS pp pp pp
0.0000000000000000e+00 2.1000000000000000e+01
0.0000000000000000e+00 2.1000000000000000e+01
0.0000000000000000e+00 2.1000000000000000e+01
ITEM: ATOMS id x y z vx vy vz
1 15.1658 3.90949 0.042007 0.00117966 -0.000397343 -0.00302612
5 15.249 1.47278 1.18115 -0.000698065 0.00860398 0.00462975
6 15.4179 1.53155 0.101987 -0.00192359 0.00378027 0.00126413
8 17.4557 0.754521 0.276927 0.000697852 -0.0061094 0.00265015
9 17.4772 2.92685 0.352564 -0.000536993 -0.00265196 0.00387308
11 17.0331 5.05632 0.221638 0.000429987 -0.00432223 -0.000164419
13 18.5363 3.02192 0.0610877 -0.000399869 0.00030733 0.00453501
14 17.3991 2.92308 1.43785 -0.00423152 -0.00770286 0.00560149
15 14.9587 3.99811 1.10179 0.000737808 -0.00462839 -0.00224061
2 16.6784 4.11399 20.7963 0.00213921 -0.00270968 0.00301636
3 14.7166 2.64586 20.5153 -0.00258098 -0.000185237 -0.002896
4 15.0361 0.591813 20.6902 -0.00379628 0.00411486 0.00198475
7 17.0823 1.52344 19.7345 -0.0018011 -0.00954532 -0.00338535
10 16.8649 4.16798 19.7154 0.00478779 -0.000458824 0.00722502
12 16.9373 1.59731 20.8116 0.000772923 -0.00134502 0.00206532
16 14.61 4.73962 20.6366 0.00151839 0.00134868 -0.00609721
ITEM: TIMESTEP
15
ITEM: NUMBER OF ATOMS
16
ITEM: BOX BOUNDS pp pp pp
0.0000000000000000e+00 2.1000000000000000e+01
0.0000000000000000e+00 2.1000000000000000e+01
0.0000000000000000e+00 2.1000000000000000e+01
ITEM: ATOMS id x y z vx vy vz
1 15.1693 3.90891 0.0361415 0.00143414 9.12711e-06 -0.00157819
5 15.2377 1.51297 1.19253 -0.00641978 0.0167041 0.000537894
6 15.4119 1.54079 0.104109 -0.00160589 0.00273648 0.000669879
8 17.4535 0.746928 0.290417 -0.00499315 0.00177826 0.00544431
9 17.4776 2.9203 0.364273 -0.000193346 -0.00173683 0.00365681
11 17.0333 5.03761 0.227743 -0.00322268 -0.00270567 0.00675195
13 18.5238 3.0356 0.0866924 -0.00366424 0.00573202 0.0111895
14 17.3971 2.89954 1.45935 0.0011117 -0.00600868 0.00673583
15 14.9578 3.96337 1.10943 -0.00143279 -0.0161379 0.00608291
2 16.686 4.10543 20.8022 0.00273691 -0.00339866 0.00102768
3 14.7088 2.64483 20.5053 -0.00280132 1.57405e-05 -0.00307767
4 15.0238 0.609898 20.6969 -0.00324043 0.0083377 0.00382345
7 17.0785 1.50505 19.7254 -0.000289018 -0.00142297 0.000288565
10 16.8708 4.17315 19.7412 0.000928896 0.00332557 0.00710895
12 16.9369 1.59218 20.8163 -0.00094108 -0.00214821 0.000995926
16 14.6069 4.74559 20.5934 -0.000777029 -0.00247892 -0.0183411
ITEM: TIMESTEP
18
ITEM: NUMBER OF ATOMS
16
ITEM: BOX BOUNDS pp pp pp
0.0000000000000000e+00 2.1000000000000000e+01
0.0000000000000000e+00 2.1000000000000000e+01
0.0000000000000000e+00 2.1000000000000000e+01
ITEM: ATOMS id x y z vx vy vz
1 15.173 3.91178 0.0320674 0.00040007 0.00109691 -0.00117322
5 15.2238 1.56182 1.18158 -0.00266969 0.0142144 -0.00560454
6 15.4067 1.54607 0.107232 -0.00170845 0.0018293 0.00165423
8 17.4331 0.757376 0.297795 -0.00781739 0.00224999 -0.00030084
9 17.4762 2.91447 0.374636 6.68925e-05 -0.00220784 0.00313195
11 17.0176 5.03021 0.25985 -0.00585852 -0.00295765 0.0118332
13 18.5167 3.04974 0.12239 -3.46974e-05 0.00463782 0.0109567
14 17.4028 2.88974 1.46789 0.00304413 0.000414386 -0.00200769
15 14.9493 3.91472 1.11491 -0.00398613 -0.0138051 -0.00440689
2 16.6936 4.09491 20.804 0.0027648 -0.00376547 0.000287782
3 14.7008 2.6467 20.4977 -0.00226191 0.00140228 -0.00173323
4 15.0086 0.631868 20.7095 -0.00853469 0.00262408 0.00477483
7 17.0878 1.50228 19.7382 0.00689352 -0.000772763 0.00781554
10 16.8812 4.19229 19.7373 0.0058941 0.00672141 -0.00654819
12 16.9323 1.5859 20.8195 -0.00215134 -0.00204144 0.00147942
16 14.6104 4.72771 20.5459 0.00599428 -0.00938975 -0.0112966
ITEM: TIMESTEP
21
ITEM: NUMBER OF ATOMS
16
ITEM: BOX BOUNDS pp pp pp
0.0000000000000000e+00 2.1000000000000000e+01
0.0000000000000000e+00 2.1000000000000000e+01
0.0000000000000000e+00 2.1000000000000000e+01
ITEM: ATOMS id x y z vx vy vz
1 15.1715 3.91209 0.0284085 -0.000910279 -0.00131102 -0.00129948
5 15.2163 1.59677 1.17679 -0.000428447 0.00891196 0.00152599
6 15.4026 1.55211 0.1127 -0.00123101 0.00159661 0.0013485
8 17.4121 0.751262 0.300584 -0.00492047 -0.00640294 0.00195967
9 17.4789 2.90691 0.385568 0.0014111 -0.00287167 0.00386018
11 17.0048 5.01437 0.293643 -0.00114552 -0.00881128 0.0120001
13 18.5332 3.05929 0.145863 0.00888352 -0.00141622 0.00478919
14 17.4125 2.89783 1.45975 0.002251 0.00487884 -0.0007032
15 14.9393 3.89725 1.08987 -0.00346248 0.00237158 -0.00859788
2 16.7022 4.08519 20.8051 0.00257466 -0.00280877 0.000577
3 14.6971 2.65195 20.4925 -0.000104412 0.00173047 -0.00200784
4 14.9764 0.628107 20.7282 -0.0110474 -0.00373384 0.00828997
7 17.1088 1.50351 19.7635 0.0068815 0.00254932 0.00608415
10 16.9046 4.20676 19.7284 0.00847574 0.00373532 0.00208782
12 16.9228 1.58146 20.8225 -0.00366153 -0.000261346 0.000667088
16 14.6397 4.69616 20.5215 0.00945602 -0.00603648 -0.0059278
ITEM: TIMESTEP
24
ITEM: NUMBER OF ATOMS
16
ITEM: BOX BOUNDS pp pp pp
0.0000000000000000e+00 2.1000000000000000e+01
0.0000000000000000e+00 2.1000000000000000e+01
0.0000000000000000e+00 2.1000000000000000e+01
ITEM: ATOMS id x y z vx vy vz
1 15.1705 3.90483 0.0221935 0.000131802 -0.00270918 -0.00308849
5 15.2259 1.61972 1.19009 0.00663921 0.00633123 0.00740098
6 15.3966 1.55437 0.114831 -0.00300947 3.38047e-05 -5.46815e-05
8 17.399 0.722581 0.303334 -0.00533889 -0.0114132 -0.00159064
9 17.4856 2.89832 0.395205 0.00319436 -0.00215799 0.0024977
11 17.0122 4.98253 0.328682 0.0053283 -0.0129853 0.0120846
13 18.5562 3.03736 0.162648 0.00483836 -0.0143515 0.00731968
14 17.4083 2.91356 1.4788 -0.00228525 0.00549886 0.0134873
15 14.9187 3.92778 1.07801 -0.00857514 0.0164514 0.00151767
2 16.7092 4.0777 20.8082 0.00204493 -0.0020293 0.00100872
3 14.7012 2.65795 20.4875 0.00273694 0.00185045 -0.000833074
4 14.9478 0.61244 20.7607 -0.00602844 -0.00428822 0.0133691
7 17.1192 1.50944 19.7595 -0.000293998 0.00262085 -0.00626777
10 16.9362 4.20777 19.7449 0.00923424 -0.00328004 0.00713744
12 16.91 1.58476 20.826 -0.00442095 0.00149204 0.00170371
16 14.656 4.6998 20.4969 0.0024434 0.00728159 -0.010463
ITEM: TIMESTEP
27
ITEM: NUMBER OF ATOMS
16
ITEM: BOX BOUNDS pp pp pp
0.0000000000000000e+00 2.1000000000000000e+01
0.0000000000000000e+00 2.1000000000000000e+01
0.0000000000000000e+00 2.1000000000000000e+01
ITEM: ATOMS id x y z vx vy vz
1 15.1692 3.89772 0.00984591 -0.00098161 -0.0019161 -0.00497215
5 15.2503 1.62929 1.2111 0.00764734 0.00226861 0.00537581
6 15.3858 1.55414 0.116492 -0.00383979 -0.000212104 0.00136936
8 17.3699 0.710032 0.292475 -0.0132689 0.00253603 -0.005266
9 17.496 2.89291 0.401421 0.00267606 -0.00213902 0.00224159
11 17.0281 4.95027 0.363016 0.00328961 -0.00454322 0.00889663
13 18.5624 2.97124 0.182518 0.000682172 -0.0266543 0.00263003
14 17.3992 2.92769 1.51293 -0.00297059 0.00409919 0.00215432
15 14.8974 3.9926 1.07323 -0.00489178 0.0250371 -0.00721246
2 16.712 4.07283 20.8114 0.000126327 -0.00165593 0.00137531
3 14.7122 2.66219 20.4864 0.00437192 0.000495214 -0.000274357
4 14.9381 0.613526 20.8023 -0.00249724 0.00293167 0.0113873
7 17.1011 1.51945 19.7446 -0.0118589 0.00210578 0.000477185
10 16.9581 4.19346 19.77 0.00599584 -0.00446997 0.00494974
12 16.9007 1.58756 20.829 -0.00219154 0.000820952 0.000441759
16 14.6603 4.72078 20.471 0.00222906 0.000962043 -0.00411733
ITEM: TIMESTEP
30
ITEM: NUMBER OF ATOMS
16
ITEM: BOX BOUNDS pp pp pp
0.0000000000000000e+00 2.1000000000000000e+01
0.0000000000000000e+00 2.1000000000000000e+01
0.0000000000000000e+00 2.1000000000000000e+01
ITEM: ATOMS id x y z vx vy vz
1 15.1654 3.89534 -0.00832129 -0.00118299 0.000563908 -0.00637275
5 15.2683 1.62588 1.21178 0.00289119 -0.00570814 -0.00262584
6 15.3731 1.55503 0.121173 -0.00432667 0.00173859 0.00199564
8 17.3292 0.714897 0.271429 -0.0106513 -0.00149228 -0.00492903
9 17.5018 2.88688 0.40965 0.00131994 -0.00192085 0.0032561
11 17.0383 4.95323 0.380213 0.00266764 0.00267672 0.00266689
13 18.568 2.89477 0.180679 0.00197044 -0.0213351 -0.00233123
14 17.3876 2.93181 1.48966 -0.00547692 -0.00112271 -0.0134664
15 14.8885 4.06049 1.04312 0.000305229 0.0166348 -0.0125002
2 16.7136 4.06669 20.8178 0.00109723 -0.00276411 0.00299731
3 14.726 2.66125 20.4876 0.00398369 -0.000822751 0.00038191
4 14.9295 0.618894 20.8256 -0.00350463 -0.00130555 0.00302913
7 17.0645 1.52357 19.7572 -0.0125953 0.00206648 0.00755489
10 16.9754 4.18705 19.7702 0.00548503 -0.00201112 -0.00273885
12 16.8946 1.58986 20.8291 -0.00214742 0.00048712 -0.000422109
16 14.6702 4.70661 20.4646 0.00380726 -0.00877171 -0.000182246
ITEM: TIMESTEP
33
ITEM: NUMBER OF ATOMS
16
ITEM: BOX BOUNDS pp pp pp
0.0000000000000000e+00 2.1000000000000000e+01
0.0000000000000000e+00 2.1000000000000000e+01
0.0000000000000000e+00 2.1000000000000000e+01
ITEM: ATOMS id x y z vx vy vz
1 15.163 3.90085 -0.027013 0.000633126 0.00310546 -0.00600507
5 15.2537 1.60241 1.19973 -0.012573 -0.00602818 -0.00121126
6 15.361 1.5621 0.127382 -0.00330656 0.00225119 0.00166465
8 17.3208 0.695217 0.269424 0.0031685 -0.00797005 0.00300093
9 17.5042 2.88029 0.417007 -0.000113632 -0.0026526 0.000437947
11 17.0362 4.96214 0.374116 -0.00323616 0.00288876 -0.00935583
13 18.57 2.85746 0.173845 -0.00185874 -0.00281293 -0.00265922
14 17.3665 2.91981 1.47056 -0.00907244 -0.00695758 0.00603943
15 14.8953 4.08363 1.00046 0.00232906 -0.000668276 -0.0118997
2 16.7178 4.05728 20.8284 0.00129375 -0.00281655 0.00362448
3 14.7362 2.65824 20.4873 0.00288344 -0.00121022 -0.000545516
4 14.9199 0.60599 20.8147 -0.00252613 -0.00470284 -0.00887851
7 17.0293 1.53236 19.7675 -0.0100778 0.00326794 -0.00410031
10 16.9804 4.18003 19.7692 -0.000922844 -0.00145269 0.00288524
12 16.8863 1.58939 20.8272 -0.00395325 -0.000959513 -0.000121541
16 14.6762 4.68789 20.4517 -0.00155 -0.0010776 -0.0108405
ITEM: TIMESTEP
36
ITEM: NUMBER OF ATOMS
16
ITEM: BOX BOUNDS pp pp pp
0.0000000000000000e+00 2.1000000000000000e+01
0.0000000000000000e+00 2.1000000000000000e+01
0.0000000000000000e+00 2.1000000000000000e+01
ITEM: ATOMS id x y z vx vy vz
1 15.1723 3.91232 -0.0447244 0.0044769 0.0040276 -0.00624147
5 15.1942 1.59894 1.21057 -0.0238522 0.00211414 0.00570032
6 15.3554 1.56474 0.132348 -0.000978093 -0.000575839 0.00200588
8 17.3317 0.68512 0.273727 0.00256424 0.00507247 -0.00104117
9 17.5023 2.86943 0.415346 -0.00125633 -0.00475699 -0.000717835
11 17.0265 4.96894 0.333706 -0.00173639 0.00363396 -0.0126932
13 18.5589 2.87361 0.159331 -0.00307678 0.0113066 -0.00670805
14 17.3425 2.88595 1.50972 -0.00523456 -0.0132295 0.0129841
15 14.895 4.06188 0.986056 -0.00386684 -0.0108568 0.0023853
2 16.7229 4.05236 20.8391 0.00212671 -0.000911584 0.00331966
3 14.7432 2.65385 20.4849 0.00157856 -0.0016354 -0.000777175
4 14.9121 0.609558 20.7858 -0.000759412 0.00936882 -0.010005
7 17.0011 1.55177 19.7464 -0.00883511 0.00792311 -0.00718217
10 16.9708 4.16728 19.7832 -0.00301524 -0.00833935 0.00473044
12 16.8716 1.586 20.8304 -0.00494024 -0.00112928 0.00196053
16 14.6697 4.70436 20.3948 0.000370371 0.00813902 -0.0253818
ITEM: TIMESTEP
39
ITEM: NUMBER OF ATOMS
16
ITEM: BOX BOUNDS pp pp pp
0.0000000000000000e+00 2.1000000000000000e+01
0.0000000000000000e+00 2.1000000000000000e+01
0.0000000000000000e+00 2.1000000000000000e+01
ITEM: ATOMS id x y z vx vy vz
1 15.1869 3.92589 -0.0638032 0.00497847 0.00498286 -0.0052473
5 15.1226 1.60562 1.22067 -0.019797 0.00144865 -0.00106299
6 15.3532 1.56028 0.138535 -0.000132938 -0.00216041 0.00263885
8 17.3354 0.715955 0.271068 0.00287148 0.011245 -0.00135021
9 17.4951 2.85463 0.415385 -0.00348561 -0.00516639 0.000943149
11 17.0308 4.99003 0.299476 0.00739057 0.00921239 -0.0109702
13 18.5552 2.92397 0.147914 -0.000392361 0.0197191 0.000657673
14 17.3459 2.8434 1.51451 0.0065004 -0.0137245 -0.00980978
15 14.8731 4.02345 0.995492 -0.00597615 -0.01206 -0.000497777
2 16.7274 4.04995 20.8481 0.000858212 -0.000654092 0.00294858
3 14.7481 2.64933 20.4814 0.00169139 -0.00102594 -0.00161715
4 14.9174 0.642218 20.7622 0.00319283 0.00960995 -0.00838504
7 16.9851 1.57606 19.7359 -0.00313538 0.0083768 0.00422236
10 16.9714 4.14285 19.7998 0.00228919 -0.00572391 0.00418086
12 16.8566 1.58125 20.8378 -0.00510146 -0.00138326 0.00268632
16 14.6835 4.71897 20.3221 0.012351 -0.00050027 -0.0192245
ITEM: TIMESTEP
42
ITEM: NUMBER OF ATOMS
16
ITEM: BOX BOUNDS pp pp pp
0.0000000000000000e+00 2.1000000000000000e+01
0.0000000000000000e+00 2.1000000000000000e+01
0.0000000000000000e+00 2.1000000000000000e+01
ITEM: ATOMS id x y z vx vy vz
1 15.2001 3.94077 -0.0773187 0.00374441 0.00404409 -0.00394488
5 15.087 1.60079 1.2011 -0.00336987 -0.0038414 -0.00732909
6 15.3535 1.55255 0.146448 2.65157e-05 -0.0023334 0.00183563
8 17.3568 0.730675 0.262953 0.00780307 -0.00404274 -0.00235165
9 17.4822 2.83873 0.418244 -0.00445715 -0.00473 0.000909869
11 17.0646 5.01038 0.273097 0.0127734 4.87424e-05 -0.00320426
13 18.5419 2.97491 0.16102 -0.0102674 0.0126849 0.00623066
14 17.3706 2.81307 1.48095 0.00860293 -0.00750078 -0.00425366
15 14.8635 4.00505 0.969771 0.000192461 0.000126364 -0.0154673
2 16.7279 4.0485 20.8576 -0.000573769 0.000503249 0.00332844
3 14.7534 2.64787 20.4742 0.0013837 0.000382914 -0.00266793
4 14.9267 0.651224 20.7265 0.00305031 -0.00595926 -0.0134648
7 16.9765 1.5888 19.7595 -0.00175947 -0.00042249 0.00856756
10 16.9769 4.1272 19.8012 0.00313351 -0.00722731 -0.005042
12 16.8433 1.57882 20.844 -0.00363503 -0.000448542 0.0018265
16 14.7377 4.70197 20.2883 0.0188482 -0.0074419 -0.00568863
ITEM: TIMESTEP
45
ITEM: NUMBER OF ATOMS
16
ITEM: BOX BOUNDS pp pp pp
0.0000000000000000e+00 2.1000000000000000e+01
0.0000000000000000e+00 2.1000000000000000e+01
0.0000000000000000e+00 2.1000000000000000e+01
ITEM: ATOMS id x y z vx vy vz
1 15.2101 3.94899 -0.0881514 0.00286206 0.00178055 -0.00358549
5 15.0887 1.58438 1.19804 0.00418801 -0.00704716 0.00607956
6 15.3536 1.54648 0.149649 -0.000295986 -0.0017902 -0.00061063
8 17.3718 0.700718 0.255888 -0.000129096 -0.0113346 -0.00362403
9 17.467 2.82807 0.420448 -0.00586888 -0.00294921 0.000877096
11 17.1023 4.99323 0.27289 0.0104125 -0.00944079 0.00364545
13 18.5094 2.98747 0.171851 -0.00727106 -0.00432388 -0.000630275
14 17.3994 2.79883 1.50605 0.010035 -0.00206432 0.0148405
15 14.8618 4.03669 0.922749 -0.00095475 0.0198932 -0.012561
2 16.7262 4.05293 20.8647 0.00042332 0.0023261 0.00114789
3 14.7552 2.65199 20.4671 0.000215091 0.00210373 -0.00261972
4 14.9399 0.628164 20.6984 0.00405706 -0.00574483 -0.00282593
7 16.9687 1.56762 19.7822 6.38186e-05 -0.0105079 0.00446982
10 16.9953 4.10983 19.7902 0.00698632 -0.00197073 0.000988808
12 16.835 1.57931 20.8519 -0.00220147 -3.74042e-05 0.00299647
16 14.7839 4.69666 20.2762 0.0114733 0.00842125 -0.00408645
ITEM: TIMESTEP
48
ITEM: NUMBER OF ATOMS
16
ITEM: BOX BOUNDS pp pp pp
0.0000000000000000e+00 2.1000000000000000e+01
0.0000000000000000e+00 2.1000000000000000e+01
0.0000000000000000e+00 2.1000000000000000e+01
ITEM: ATOMS id x y z vx vy vz
1 15.2167 3.95241 -0.0969023 0.00124729 0.000462953 -0.00266081
5 15.1122 1.55885 1.22522 0.0104551 -0.0112354 0.00615384
6 15.3484 1.54076 0.144273 -0.00306418 -0.00197587 -0.00224048
8 17.3396 0.681282 0.24368 -0.0164429 -0.00225927 0.000264682
9 17.4464 2.82472 0.425963 -0.00720312 0.0011351 0.00355676
11 17.1295 4.96082 0.303489 0.00604983 -0.0071829 0.0184327
13 18.499 2.94572 0.167168 -0.00130793 -0.0242185 -0.00252329
14 17.4196 2.79187 1.53772 0.0013609 -0.000762651 0.00256767
15 14.8506 4.11613 0.911723 -0.00616366 0.0302865 0.00432957
2 16.7317 4.06111 20.8651 0.00341943 0.0017664 -0.000605965
3 14.7565 2.66135 20.4574 0.000378359 0.00407331 -0.00381793
4 14.945 0.617998 20.7105 0.000529281 0.000113282 0.00945537
7 16.9727 1.54133 19.78 0.00138265 -0.00686476 -0.000646084
10 17.0128 4.10592 19.8093 0.00493518 0.000290703 0.00999693
12 16.833 1.57528 20.8624 0.00075355 -0.0023988 0.00384253
16 14.8007 4.73711 20.2595 0.00203019 0.0131515 -0.00414325
ITEM: TIMESTEP
51
ITEM: NUMBER OF ATOMS
16
ITEM: BOX BOUNDS pp pp pp
0.0000000000000000e+00 2.1000000000000000e+01
0.0000000000000000e+00 2.1000000000000000e+01
0.0000000000000000e+00 2.1000000000000000e+01
ITEM: ATOMS id x y z vx vy vz
1 15.2187 3.95592 -0.104275 -0.000378469 0.00266007 -0.00210895
5 15.1552 1.52754 1.21768 0.0150974 -0.00774894 -0.00833477
6 15.3378 1.53635 0.137067 -0.00319566 -0.000431379 -0.00290769
8 17.2937 0.676542 0.259814 -0.0111157 -0.00533581 0.0114562
9 17.429 2.82969 0.440318 -0.00388366 0.00173589 0.00504612
11 17.1349 4.9588 0.366098 -0.00564442 0.00252802 0.0194059
13 18.4894 2.852 0.151557 -0.00552117 -0.0333661 -0.00659385
14 17.4061 2.79501 1.51567 -0.00995521 0.00299062 -0.00976915
15 14.84 4.19731 0.919477 0.000521358 0.0203005 -0.00424477
2 16.7443 4.06235 20.8606 0.00417451 0.00024296 -0.00141891
3 14.7561 2.67292 20.445 -0.000708936 0.00361261 -0.00373696
4 14.9395 0.614813 20.7384 -0.00754089 -0.00433565 0.00655968
7 16.9792 1.52449 19.7813 0.00429718 -0.00397966 0.00223699
10 17.0299 4.11856 19.8332 0.00869611 0.00809509 -0.00166468
12 16.8371 1.56425 20.8718 0.00143997 -0.00425544 0.00182847
16 14.8109 4.75964 20.2623 0.00399284 0.00109668 0.0067437
ITEM: TIMESTEP
54
ITEM: NUMBER OF ATOMS
16
ITEM: BOX BOUNDS pp pp pp
0.0000000000000000e+00 2.1000000000000000e+01
0.0000000000000000e+00 2.1000000000000000e+01
0.0000000000000000e+00 2.1000000000000000e+01
ITEM: ATOMS id x y z vx vy vz
1 15.2155 3.96608 -0.109469 -0.00087722 0.00372781 -0.000884124
5 15.1855 1.51947 1.19441 0.00187068 0.00389547 -0.00372129
6 15.3302 1.5358 0.126264 -0.0018058 -0.00017443 -0.00440884
8 17.2769 0.644151 0.312206 0.00132243 -0.011275 0.0208819
9 17.4216 2.8343 0.451171 -0.00135835 7.07215e-05 0.00189489
11 17.0996 4.95741 0.418167 -0.0145495 -0.00356392 0.0131818
13 18.4695 2.76876 0.13554 -0.00751049 -0.0199678 -0.000311589
14 17.3656 2.80983 1.51799 -0.0182491 0.00809813 0.0126495
15 14.8474 4.23067 0.883086 0.00262492 0.00396073 -0.0142458
2 16.7567 4.06649 20.8583 0.00362191 0.00252806 -0.000425784
3 14.7536 2.68448 20.4364 -0.000719242 0.003903 -0.00265472
4 14.9018 0.598017 20.748 -0.013166 -0.00371482 0.00158655
7 16.9973 1.52323 19.8004 0.00753959 0.000532386 0.00649318
10 17.0685 4.15391 19.8049 0.0138658 0.0156709 -0.00876003
12 16.8403 1.5498 20.8764 0.000159922 -0.00585022 0.00150337
16 14.8247 4.75709 20.2823 0.00303409 0.000615478 0.00280303
ITEM: TIMESTEP
57
ITEM: NUMBER OF ATOMS
16
ITEM: BOX BOUNDS pp pp pp
0.0000000000000000e+00 2.1000000000000000e+01
0.0000000000000000e+00 2.1000000000000000e+01
0.0000000000000000e+00 2.1000000000000000e+01
ITEM: ATOMS id x y z vx vy vz
1 15.2159 3.97663 -0.109391 0.00107278 0.0031391 -0.000329638
5 15.1657 1.54198 1.19025 -0.0135477 0.00973646 -0.00280033
6 15.3267 1.53443 0.11075 -0.00140792 -0.00134411 -0.00552455
8 17.2899 0.634637 0.367966 0.00517481 0.00736255 0.0121899
9 17.4196 2.83093 0.453761 -0.000303085 -0.00256557 3.83261e-06
11 17.0494 4.93692 0.444738 -0.0152708 -0.00618519 0.00634835
13 18.4551 2.74111 0.159067 -0.000229831 0.00171639 0.0161645
14 17.3129 2.84155 1.56199 -0.0142804 0.0119704 0.0082907
15 14.8515 4.2218 0.859651 -0.00239565 -0.00826137 0.00184672
2 16.7659 4.07509 20.8584 0.00306129 0.00301193 -0.000133436
3 14.7512 2.69368 20.4279 -0.000679803 0.00210049 -0.00274764
4 14.8726 0.595393 20.7452 -0.00845426 0.00436903 -0.00375916
7 17.0313 1.52026 19.8129 0.0114283 -0.0018929 0.00278885
10 17.0986 4.20615 19.8006 0.00479938 0.0161637 0.00976068
12 16.8359 1.53161 20.8829 -0.00243019 -0.00627006 0.00320358
16 14.8179 4.76531 20.2674 -0.00618311 0.00512892 -0.0118278
ITEM: TIMESTEP
60
ITEM: NUMBER OF ATOMS
16
ITEM: BOX BOUNDS pp pp pp
0.0000000000000000e+00 2.1000000000000000e+01
0.0000000000000000e+00 2.1000000000000000e+01
0.0000000000000000e+00 2.1000000000000000e+01
ITEM: ATOMS id x y z vx vy vz
1 15.2214 3.98481 -0.113663 0.00222869 0.00322188 -0.00175426
5 15.1171 1.57514 1.17339 -0.0168442 0.0132124 -0.00884307
6 15.323 1.52929 0.0953915 -0.00125088 -0.000793233 -0.00437205
8 17.2962 0.679024 0.392408 0.000683117 0.0145873 0.00758796
9 17.421 2.81986 0.45424 0.000399388 -0.00436095 0.000824351
11 17.0232 4.93787 0.459735 -0.00322149 0.00525547 0.0044514
13 18.4701 2.77732 0.223348 0.0119354 0.0202656 0.0258941
14 17.2811 2.86485 1.55021 -0.00538817 0.00219786 -0.0142357
15 14.8304 4.18491 0.888097 -0.00960319 -0.0150489 0.0120195
2 16.7729 4.08324 20.8566 0.00129324 0.00203715 -0.000993996
3 14.7491 2.70014 20.4199 -0.0010433 0.00228486 -0.0025329
4 14.856 0.626929 20.7262 -0.00304773 0.0124843 -0.00913312
7 17.062 1.49975 19.8191 0.00949285 -0.0149662 0.00214687
10 17.1027 4.24986 19.8495 0.0006036 0.0122973 0.0163189
12 16.827 1.51241 20.8935 -0.00284366 -0.00561861 0.00359176
16 14.8029 4.77958 20.2283 -0.00139399 -0.000379935 -0.00859272
ITEM: TIMESTEP
63
ITEM: NUMBER OF ATOMS
16
ITEM: BOX BOUNDS pp pp pp
0.0000000000000000e+00 2.1000000000000000e+01
0.0000000000000000e+00 2.1000000000000000e+01
0.0000000000000000e+00 2.1000000000000000e+01
ITEM: ATOMS id x y z vx vy vz
1 15.2287 3.9952 -0.119693 0.00227735 0.00273253 -0.00211538
5 15.0661 1.61114 1.1387 -0.0162802 0.00759175 -0.0121503
6 15.3178 1.53238 0.0853098 -0.0024646 0.0026439 -0.00252377
8 17.2979 0.695948 0.421508 -0.000439211 -0.00473847 0.0129395
9 17.422 2.80652 0.458341 0.00035116 -0.0036448 0.00101851
11 17.0352 4.96533 0.462752 0.0101988 0.00956472 -0.0031222
13 18.5204 2.84915 0.304011 0.01403 0.0243413 0.0274345
14 17.269 2.86447 1.50816 -0.00446515 -0.001279 -0.00675109
15 14.817 4.13083 0.914853 0.00143978 -0.0182043 0.00183213
2 16.773 4.08779 20.8567 -0.00107643 0.00190155 0.00123593
3 14.7458 2.70636 20.4134 -0.00100753 0.00150696 -0.00205751
4 14.846 0.644969 20.6826 -0.00125177 -0.00186088 -0.017213
7 17.0841 1.43587 19.8359 0.00311724 -0.0265449 0.0104829
10 17.1158 4.2807 19.8649 0.0107033 0.00954643 -0.00723851
12 16.8218 1.49791 20.9019 -0.000109869 -0.00336702 0.00178895
16 14.8103 4.76054 20.2227 0.00509794 -0.0069138 0.00313911
ITEM: TIMESTEP
66
ITEM: NUMBER OF ATOMS
16
ITEM: BOX BOUNDS pp pp pp
0.0000000000000000e+00 2.1000000000000000e+01
0.0000000000000000e+00 2.1000000000000000e+01
0.0000000000000000e+00 2.1000000000000000e+01
ITEM: ATOMS id x y z vx vy vz
1 15.2343 3.99824 -0.12487 0.00183203 -0.000815375 -0.00152895
5 15.0204 1.61503 1.113 -0.0139468 -0.00488817 -0.00218541
6 15.3065 1.54494 0.0775468 -0.00467528 0.004925 -0.00299964
8 17.2873 0.652329 0.468177 -0.00986708 -0.0171199 0.0139743
9 17.4232 2.79823 0.458211 0.00111466 -0.00122551 -2.27408e-05
11 17.0724 4.97904 0.445879 0.0145441 -0.00140223 -0.00651538
13 18.5227 2.91265 0.386364 -0.0117939 0.0151377 0.0228694
14 17.2548 2.84726 1.52828 -0.00460835 -0.0101807 0.0161107
15 14.8381 4.08511 0.895198 0.0124179 -0.0105986 -0.0121538
2 16.7687 4.09458 20.8627 -0.000856781 0.0022047 0.00196725
3 14.7461 2.71048 20.4057 0.00126431 0.00168614 -0.00251326
4 14.8493 0.634262 20.6396 0.00424005 -0.000762126 -0.00975363
7 17.0812 1.34365 19.8644 -0.00490016 -0.0331934 0.00652401
10 17.1504 4.30593 19.8242 0.00699093 0.00259315 -0.00834338
12 16.825 1.49354 20.9043 0.00255677 -0.000347674 0.000622027
16 14.8286 4.7561 20.2368 0.00472251 0.00795106 0.00556035
ITEM: TIMESTEP
69
ITEM: NUMBER OF ATOMS
16
ITEM: BOX BOUNDS pp pp pp
0.0000000000000000e+00 2.1000000000000000e+01
0.0000000000000000e+00 2.1000000000000000e+01
0.0000000000000000e+00 2.1000000000000000e+01
ITEM: ATOMS id x y z vx vy vz
1 15.2394 3.99144 -0.129632 0.00216283 -0.00331453 -0.0023829
5 14.9858 1.58629 1.12208 -0.00604486 -0.0124651 0.00475783
6 15.2909 1.56034 0.0658024 -0.00517579 0.00568767 -0.00364636
8 17.2275 0.623652 0.487477 -0.0254596 -0.000276338 -0.00280944
9 17.4269 2.80106 0.462499 0.000498876 0.00246468 0.00323062
11 17.11 4.96691 0.430385 0.0101394 -0.0045435 -0.00304934
13 18.4893 2.93204 0.431767 -0.00386731 -0.00292786 0.00682354
14 17.2337 2.79997 1.56429 -0.00859745 -0.0198592 0.00360304
15 14.8806 4.07947 0.867694 0.0113325 0.00617155 -0.00157781
2 16.7699 4.10065 20.8672 0.00169806 0.00106154 0.000284789
3 14.7528 2.71591 20.3969 0.00273543 0.00195082 -0.00329294
4 14.871 0.646074 20.6285 0.0080029 0.00713935 0.00113064
7 17.0731 1.25703 19.8651 0.000279042 -0.0231924 -0.00395906
10 17.1424 4.29135 19.8412 -0.0125628 -0.0112753 0.0168122
12 16.8348 1.49035 20.9089 0.00368905 -0.00243511 0.00281312
16 14.8266 4.80438 20.2571 -0.00387586 0.0173073 0.0108679
ITEM: TIMESTEP
72
ITEM: NUMBER OF ATOMS
16
ITEM: BOX BOUNDS pp pp pp
0.0000000000000000e+00 2.1000000000000000e+01
0.0000000000000000e+00 2.1000000000000000e+01
0.0000000000000000e+00 2.1000000000000000e+01
ITEM: ATOMS id x y z vx vy vz
1 15.2451 3.98219 -0.137874 0.00106795 -0.00222196 -0.00207952
5 14.9854 1.54799 1.12211 0.00293867 -0.0104907 -0.00812595
6 15.2785 1.57699 0.0574229 -0.00284297 0.0046715 -0.00236164
8 17.1489 0.639829 0.475337 -0.0228596 0.00246578 0.00167735
9 17.4258 2.81325 0.476564 -0.00103601 0.00441934 0.00556539
11 17.1301 4.95592 0.436939 0.00171975 -0.00178358 0.00734044
13 18.5035 2.88685 0.428808 0.00983505 -0.0229694 -0.00557416
14 17.2059 2.74851 1.54262 -0.0104023 -0.0114175 -0.0113942
15 14.9039 4.11014 0.892933 0.00462056 0.0107091 0.0128132
2 16.7767 4.09907 20.8694 0.00170901 -0.00211796 0.00221694
3 14.7606 2.72229 20.3845 0.00216922 0.00253821 -0.00435487
4 14.8869 0.665537 20.6316 0.000531561 0.00490151 -0.00184698
7 17.0812 1.21801 19.858 0.00579223 0.000322204 0.00297655
10 17.0997 4.24371 19.8863 -0.00776439 -0.0176337 0.00218751
12 16.8445 1.48058 20.9167 0.00179346 -0.00298142 0.00157901
16 14.8166 4.83162 20.3053 -0.00390152 -0.000759255 0.018059
ITEM: TIMESTEP
75
ITEM: NUMBER OF ATOMS
16
ITEM: BOX BOUNDS pp pp pp
0.0000000000000000e+00 2.1000000000000000e+01