4
# Step: 0 Box:    8.0000    8.0000    8.0000 
H         0.903745440     0.767302359     0.420414806     0.000223445     0.000535542     0.000425715
H         1.394643487     0.141427484     0.944074266    -0.000620929    -0.000054858    -0.001036412
H         2.047370346    -0.096971007     0.242348602     0.000735143    -0.000827285     0.000065694
H         1.384084742    -0.236264724    -0.494035128    -0.000337660     0.000346600     0.000545002
4
# Step: 1 Box:    8.0000    8.0000    8.0000 
H         0.940838036     0.873861476     0.379328993     0.000898476     0.000526472    -0.000394737
H         1.353555309     0.034026843     0.931012807    -0.000082224    -0.000984679    -0.000209322
H         2.089481307    -0.126831142     0.220518259    -0.000580050     0.000304713     0.000070205
H         1.345969254    -0.205563174    -0.418057622    -0.000236202     0.000153493     0.000533853
4
# Step: 2 Box:    8.0000    8.0000    8.0000 
H         1.098831103     0.817404881     0.409337952     0.001429085    -0.000371129     0.000262561
H         1.305301605     0.041509325     0.872476610    -0.000817811     0.000127466     0.000293741
H         2.023946082    -0.077911302     0.258428613    -0.000195595     0.000360606     0.000036365
H         1.301765006    -0.205509011    -0.427440848    -0.000415680    -0.000116945    -0.000592667
