1
# Step: 0 Box:       inf    0.0000    0.0000 
H        -0.692452269     0.000000000     0.000000000    -0.189446289     0.119120704     0.329582924
1
# Step: 1 Box:       inf    0.0000    0.0000 
H        -0.698025370     0.000000000     0.000000000    -0.239305682     0.119120704     0.329582924
1
# Step: 2 Box:       inf    0.0000    0.0000 
H        -0.704010517     0.000000000     0.000000000    -0.253052065     0.119120704     0.329582924
1
# Step: 3 Box:       inf    0.0000    0.0000 
H        -0.710950458     0.000000000     0.000000000    -0.310480468     0.119120704     0.329582924
1
# Step: 4 Box:       inf    0.0000    0.0000 
H        -0.718803249     0.000000000     0.000000000    -0.306644200     0.119120704     0.329582924
1
# Step: 5 Box:       inf    0.0000    0.0000 
H        -0.727231006     0.000000000     0.000000000    -0.388649288     0.119120704     0.329582924
1
# Step: 6 Box:       inf    0.0000    0.0000 
H        -0.738084535     0.000000000     0.000000000    -0.448753214     0.119120704     0.329582924
1
# Step: 7 Box:       inf    0.0000    0.0000 
H        -0.749959131     0.000000000     0.000000000    -0.483187070     0.119120704     0.329582924
1
# Step: 8 Box:       inf    0.0000    0.0000 
H        -0.762039420     0.000000000     0.000000000    -0.489036390     0.119120704     0.329582924
1
# Step: 9 Box:       inf    0.0000    0.0000 
H        -0.774339854     0.000000000     0.000000000    -0.501358501     0.119120704     0.329582924
1
# Step: 10 Box:       inf    0.0000    0.0000 
H        -0.786988801     0.000000000     0.000000000    -0.496330580     0.119120704     0.329582924
1
# Step: 11 Box:       inf    0.0000    0.0000 
H        -0.799608051     0.000000000     0.000000000    -0.537267707     0.119120704     0.329582924
1
# Step: 12 Box:       inf    0.0000    0.0000 
H        -0.813229655     0.000000000     0.000000000    -0.560199824     0.119120704     0.329582924
