1
# Step: 0 Box:       inf    0.0000    0.0000 
H        -0.692452269     0.000000000     0.000000000     0.189446289    -0.119120704    -0.329582924
1
# Step: 1 Box:       inf    0.0000    0.0000 
H        -0.687696555     0.000000000     0.000000000     0.189286356    -0.119120704    -0.329582924
1
# Step: 2 Box:       inf    0.0000    0.0000 
H        -0.683099204     0.000000000     0.000000000     0.179165481    -0.119120704    -0.329582924
1
# Step: 3 Box:       inf    0.0000    0.0000 
H        -0.679117972     0.000000000     0.000000000     0.149642809    -0.119120704    -0.329582924
1
# Step: 4 Box:       inf    0.0000    0.0000 
H        -0.675744230     0.000000000     0.000000000     0.116674230    -0.119120704    -0.329582924
1
# Step: 5 Box:       inf    0.0000    0.0000 
H        -0.673234794     0.000000000     0.000000000     0.087230680    -0.119120704    -0.329582924
1
# Step: 6 Box:       inf    0.0000    0.0000 
H        -0.671218295     0.000000000     0.000000000     0.061809726    -0.119120704    -0.329582924
1
# Step: 7 Box:       inf    0.0000    0.0000 
H        -0.670403961     0.000000000     0.000000000     0.001318462    -0.119120704    -0.329582924
1
# Step: 8 Box:       inf    0.0000    0.0000 
H        -0.670410776     0.000000000     0.000000000    -0.021340202    -0.119120704    -0.329582924
1
# Step: 9 Box:       inf    0.0000    0.0000 
H        -0.671070365     0.000000000     0.000000000    -0.049146364    -0.119120704    -0.329582924
1
# Step: 10 Box:       inf    0.0000    0.0000 
H        -0.672774946     0.000000000     0.000000000    -0.075322350    -0.119120704    -0.329582924
1
# Step: 11 Box:       inf    0.0000    0.0000 
H        -0.674801478     0.000000000     0.000000000    -0.082649711    -0.119120704    -0.329582924
1
# Step: 12 Box:       inf    0.0000    0.0000 
H        -0.677909530     0.000000000     0.000000000    -0.163161577    -0.119120704    -0.329582924
1
# Step: 13 Box:       inf    0.0000    0.0000 
H        -0.682050524     0.000000000     0.000000000    -0.156570949    -0.119120704    -0.329582924
1
# Step: 14 Box:       inf    0.0000    0.0000 
H        -0.685410698     0.000000000     0.000000000    -0.125588174    -0.119120704    -0.329582924
1
# Step: 15 Box:       inf    0.0000    0.0000 
H        -0.688953133     0.000000000     0.000000000    -0.178581177    -0.119120704    -0.329582924
1
# Step: 16 Box:       inf    0.0000    0.0000 
H        -0.693473985     0.000000000     0.000000000    -0.164509578    -0.119120704    -0.329582924
1
# Step: 17 Box:       inf    0.0000    0.0000 
H        -0.697932266     0.000000000     0.000000000    -0.227155277    -0.119120704    -0.329582924
1
# Step: 18 Box:       inf    0.0000    0.0000 
H        -0.703529368     0.000000000     0.000000000    -0.228536722    -0.119120704    -0.329582924
1
# Step: 19 Box:       inf    0.0000    0.0000 
H        -0.709984410     0.000000000     0.000000000    -0.300554042    -0.119120704    -0.329582924
1
# Step: 20 Box:       inf    0.0000    0.0000 
H        -0.717929117     0.000000000     0.000000000    -0.357828405    -0.119120704    -0.329582924
1
# Step: 21 Box:       inf    0.0000    0.0000 
H        -0.727610142     0.000000000     0.000000000    -0.433735409    -0.119120704    -0.329582924
1
# Step: 22 Box:       inf    0.0000    0.0000 
H        -0.738740536     0.000000000     0.000000000    -0.468120687    -0.119120704    -0.329582924
1
# Step: 23 Box:       inf    0.0000    0.0000 
H        -0.750610479     0.000000000     0.000000000    -0.474777001    -0.119120704    -0.329582924
1
# Step: 24 Box:       inf    0.0000    0.0000 
H        -0.762103252     0.000000000     0.000000000    -0.430782487    -0.119120704    -0.329582924
1
# Step: 25 Box:       inf    0.0000    0.0000 
H        -0.773790562     0.000000000     0.000000000    -0.482370420    -0.119120704    -0.329582924
1
# Step: 26 Box:       inf    0.0000    0.0000 
H        -0.786161464     0.000000000     0.000000000    -0.523903828    -0.119120704    -0.329582924
1
# Step: 27 Box:       inf    0.0000    0.0000 
H        -0.799904209     0.000000000     0.000000000    -0.584606337    -0.119120704    -0.329582924
1
# Step: 28 Box:       inf    0.0000    0.0000 
H        -0.815782415     0.000000000     0.000000000    -0.673282500    -0.119120704    -0.329582924
