4
# Step: 0 Box:    8.0000    8.0000    8.0000 
H         2.769237186     0.084989256    -0.342340277    -0.000443175    -0.000199088    -0.000863625
H         2.265748289     0.711696232     0.246934870     0.000792433     0.000127397     0.000108655
H         2.414700590     0.073537039     1.004057374    -0.000720776     0.000194478     0.000024532
H         1.785278561    -0.465598352     0.655445407     0.000371518    -0.000122787     0.000730438
4
# Step: 1 Box:    8.0000    8.0000    8.0000 
H         2.716401744     0.059168221    -0.419282882    -0.000536188    -0.000293777    -0.000242629
H         2.343883665     0.742707447     0.238426088     0.000568179     0.000551459    -0.000321596
H         2.447833945     0.167039007     1.072454336     0.000140397     0.000206427     0.000255377
H         1.726845273    -0.564290500     0.672499833    -0.000172387    -0.000464109     0.000308848
4
# Step: 2 Box:    8.0000    8.0000    8.0000 
H         2.652249197     0.032282125    -0.390878874    -0.000567374    -0.000254754     0.000455330
H         2.381139120     0.758701047     0.218568595    -0.000109542    -0.000522254     0.000011678
H         2.410300735     0.115894442     1.006822040     0.000547676     0.000180820    -0.000330697
H         1.791275573    -0.502253440     0.729585614     0.000129239     0.000596189    -0.000136311
