       2
 i =      480, time =    24000.000, E =         0.0000011432
  H         1.0385191585        0.8740328695        0.3886084372
  H         9.4885191585        0.8740328695        0.3886084372
