2
# Step: 0 Box:    3.0000    3.0000    3.0000
H        -0.161199517     0.112067982     0.125831571     2.738326099     1.067714486    -0.270539596
H         0.243435454     0.078798623     0.120650743    -3.020947049    -1.436241925     1.649836485
2
# Step: 1 Box:    3.0000    3.0000    3.0000
H        -0.155376262     0.114206265     0.125293700     3.112487016     1.082753575    -0.263761350
H         0.237049601     0.075952411     0.123919315    -3.389511446    -1.422105538     1.646111152
2
# Step: 2 Box:    3.0000    3.0000    3.0000
H        -0.148758530     0.116398553     0.124715055     3.514564318     1.086792193    -0.316120640
H         0.229900450     0.073168916     0.127266994    -3.749038905    -1.371279150     1.682096431
2
# Step: 3 Box:    3.0000    3.0000    3.0000
H        -0.141280426     0.118580688     0.124035481     3.933819229     1.074273488    -0.342755494
H         0.222021609     0.070548533     0.130642351    -4.151893181    -1.252866610     1.701974553
2
# Step: 4 Box:    3.0000    3.0000    3.0000
H        -0.133079194     0.120685542     0.123358008     4.253006674     1.016422537    -0.349039235
H         0.213375559     0.068113583     0.134071180    -4.486988892    -1.190840274     1.711168063
2
# Step: 5 Box:    3.0000    3.0000    3.0000
H        -0.124400465     0.122696122     0.122701515     4.349286042     1.006930138    -0.326715367
H         0.204161364     0.065663800     0.137437470    -4.683420595    -1.251134352     1.659505716
