2
# Step: 0 Box:    3.0000    3.0000    3.0000
H        -0.192310652     0.087866752     0.130186828    -0.465320482    -1.026236023     0.218880793
H         0.283725782     0.111340656     0.084541421     0.951095392     1.480889000    -1.589322469
2
# Step: 1 Box:    3.0000    3.0000    3.0000
H        -0.193083674     0.085853701     0.130668573    -0.303281964    -0.970764519     0.236099321
H         0.285503569     0.114210834     0.081359486     0.813223389     1.398234829    -1.582049292
2
# Step: 2 Box:    3.0000    3.0000    3.0000
H        -0.193598218     0.083925342     0.131118507    -0.186688253    -0.939067367     0.214830203
H         0.286959191     0.116998803     0.078218563     0.687648385     1.401483428    -1.573168229
2
# Step: 3 Box:    3.0000    3.0000    3.0000
H        -0.193887391     0.082069545     0.131550572    -0.082878293    -0.910891741     0.190392458
H         0.288240399     0.119774958     0.075122091     0.564998646     1.356571538    -1.575854835
2
# Step: 4 Box:    3.0000    3.0000    3.0000
H        -0.193873958     0.080241966     0.131952051     0.080467223    -0.920434549     0.204511567
H         0.289221393     0.122482878     0.072023995     0.413535834     1.348035966    -1.522051048
2
# Step: 5 Box:    3.0000    3.0000    3.0000
H        -0.193584990     0.078394702     0.132353858     0.208509579    -0.932709299     0.198093272
H         0.289977639     0.125227752     0.068967183     0.305547355     1.372411270    -1.542342638
2
# Step: 6 Box:    3.0000    3.0000    3.0000
H        -0.193102233     0.076542030     0.132703551     0.254236556    -0.919452554     0.131813419
H         0.290444159     0.127982451     0.065840760     0.167630726     1.365294836    -1.554810107
2
# Step: 7 Box:    3.0000    3.0000    3.0000
H        -0.192520573     0.074670713     0.132896444     0.345077680    -0.916185631     0.080670752
H         0.290735570     0.130678498     0.062746417     0.115404924     1.314155506    -1.525901009
2
# Step: 8 Box:    3.0000    3.0000    3.0000
H        -0.191685874     0.072850310     0.133056692     0.446145516    -0.923849266     0.088227934
H         0.290776088     0.133352764     0.059664032    -0.050565738     1.359163623    -1.525721973
2
# Step: 9 Box:    3.0000    3.0000    3.0000
H        -0.190700989     0.070935531     0.133246499     0.533153631    -0.982858207     0.133990739
H         0.290600109     0.136107656     0.056642060    -0.149318939     1.381483336    -1.470022296
2
# Step: 10 Box:    3.0000    3.0000    3.0000
H        -0.189484703     0.068946492     0.133487988     0.680827772    -0.992897546     0.121169736
H         0.290157820     0.138874304     0.053733476    -0.305185379     1.351111871    -1.445785711
2
# Step: 11 Box:    3.0000    3.0000    3.0000
H        -0.188006725     0.067011171     0.133679902     0.815602782    -0.965123924     0.107019763
H         0.289435896     0.141563036     0.050854403    -0.417262588     1.341542138    -1.457478994
2
# Step: 12 Box:    3.0000    3.0000    3.0000
H        -0.186239675     0.065080348     0.133818353     0.932779218    -0.953831307     0.053582509
H         0.288477370     0.144225390     0.047973352    -0.558397605     1.351189576    -1.425064163
2
# Step: 13 Box:    3.0000    3.0000    3.0000
H        -0.184274743     0.063164899     0.133910417     1.026207663    -0.943342940     0.025177690
H         0.287225238     0.146844786     0.045202739    -0.711180273     1.292104652    -1.386567011
2
# Step: 14 Box:    3.0000    3.0000    3.0000
H        -0.182103553     0.061280139     0.133977639     1.125411857    -0.919565970     0.015790250
H         0.285731526     0.149413940     0.042453378    -0.803349548     1.290029896    -1.362261544
2
# Step: 15 Box:    3.0000    3.0000    3.0000
H        -0.179750618     0.059437467     0.133994381     1.210048040    -0.914282992    -0.005766635
H         0.283919643     0.151970721     0.039766788    -0.987279334     1.265120835    -1.340123834
2
# Step: 16 Box:    3.0000    3.0000    3.0000
H        -0.177177717     0.057628525     0.133987149     1.339138198    -0.888360847     0.003416892
H         0.281813703     0.154535763     0.037173591    -1.100854959     1.263802619    -1.259196231
2
# Step: 17 Box:    3.0000    3.0000    3.0000
H        -0.174314606     0.055904781     0.133948328     1.504607776    -0.835870926    -0.025931659
H         0.279506965     0.157067277     0.034698907    -1.209523721     1.281123583    -1.212678776
2
# Step: 18 Box:    3.0000    3.0000    3.0000
H        -0.171138396     0.054274260     0.133821914     1.636821074    -0.810584481    -0.072004522
H         0.276932639     0.159588655     0.032305183    -1.343859079     1.227900235    -1.177095059
2
# Step: 19 Box:    3.0000    3.0000    3.0000
H        -0.167759737     0.052716740     0.133606643     1.766947627    -0.744178587    -0.099373741
H         0.274105534     0.162022164     0.029928396    -1.497449439     1.207628931    -1.202209242
2
# Step: 20 Box:    3.0000    3.0000    3.0000
H        -0.164069158     0.051264929     0.133402675     1.906437763    -0.695791977    -0.109554471
H         0.270931027     0.164408119     0.027555806    -1.685570354     1.172052864    -1.153540299
2
# Step: 21 Box:    3.0000    3.0000    3.0000
H        -0.160039962     0.049886647     0.133173524     2.112541158    -0.666983440    -0.128689027
H         0.267385888     0.166677612     0.025258331    -1.862353778     1.106650986    -1.128714408
2
# Step: 22 Box:    3.0000    3.0000    3.0000
H        -0.155634491     0.048606276     0.132849137     2.304420912    -0.605174805    -0.188494222
H         0.263502283     0.168807835     0.023068193    -2.023060285     1.041691222    -1.088689115
2
# Step: 23 Box:    3.0000    3.0000    3.0000
H        -0.150876843     0.047457389     0.132426628     2.496337830    -0.540427074    -0.253771213
H         0.259237305     0.170811887     0.020920249    -2.212115579     0.975730763    -1.042268026
2
# Step: 24 Box:    3.0000    3.0000    3.0000
H        -0.145706786     0.046439962     0.131830671     2.675682907    -0.453260656    -0.333159298
H         0.254638206     0.172680534     0.018921563    -2.393236460     0.886828289    -0.967616863
2
# Step: 25 Box:    3.0000    3.0000    3.0000
H        -0.140067435     0.045667203     0.131047740     2.944996866    -0.348614306    -0.455737895
H         0.249678287     0.174360739     0.017067665    -2.583589815     0.772504235    -0.892247653
2
# Step: 26 Box:    3.0000    3.0000    3.0000
H        -0.133847625     0.045088119     0.130061972     3.226552909    -0.206319871    -0.545742013
H         0.244284889     0.175816606     0.015375766    -2.797911586     0.685917638    -0.798613308
2
# Step: 27 Box:    3.0000    3.0000    3.0000
H        -0.127151666     0.044750746     0.128932198     3.467601115    -0.122862993    -0.603375474
H         0.238436202     0.177051236     0.013856688    -3.076989040     0.541067280    -0.725352269
