4
# Step: 0 Box:    8.0000    8.0000    8.0000 
H         1.934921527     0.445508526     0.785668442     0.000009381    -0.000001976    -0.000013162
H         2.874265652     0.414369217     1.198807386    -0.000006718    -0.000006428     0.000020386
H         3.233459332    -0.101084359     0.314376307    -0.000009767    -0.000011789     0.000006965
H         2.408728107    -0.470737264     0.139740833    -0.000002710    -0.000012691     0.000006078
4
# Step: 1 Box:    8.0000    8.0000    8.0000 
H         2.020796475     0.491196342     0.676280077     0.000006035     0.000007150    -0.000013408
H         2.805474170     0.215474324     1.242087290     0.000001069    -0.000017316     0.000011369
H         3.207671017    -0.096989143     0.480039993    -0.000018091    -0.000001619     0.000011729
H         2.322230833    -0.640621389     0.236788566     0.000002912    -0.000015268     0.000006984
4
# Step: 2 Box:    8.0000    8.0000    8.0000 
H         2.048032332     0.613740911     0.686076127     0.000000956     0.000012318     0.000002527
H         2.642464656     0.118514358     1.283834942    -0.000009947     0.000000766     0.000010557
H         3.169742564    -0.256872568     0.510825472    -0.000009226    -0.000017771     0.000004470
H         2.415285874    -0.776548591     0.321004538     0.000011261    -0.000018623    -0.000003188
