4
# Step: 0 Box:    8.0000    8.0000    8.0000 
H         2.097306826     0.644665291     0.771688129     0.000021268    -0.000002074    -0.000005754
H         3.041491178     0.518402994     0.946796426    -0.000000971     0.000003415    -0.000001070
H         3.086753155     0.150305983    -0.011271947    -0.000004383     0.000030454    -0.000021483
H         2.229379738    -0.261367239     0.053944619    -0.000004285     0.000007166     0.000004294
4
# Step: 1 Box:    8.0000    8.0000    8.0000 
H         2.136445809     0.731263087     0.814863168    -0.000004674     0.000013407     0.000011007
H         3.154603295     0.508355305     0.794454827     0.000014781    -0.000000282    -0.000011356
H         3.041225606     0.415006405    -0.097855373    -0.000010989     0.000014251    -0.000009120
H         2.236704588    -0.220517865     0.014193335     0.000010562     0.000005056    -0.000010521
4
# Step: 2 Box:    8.0000    8.0000    8.0000 
H         2.205916020     0.858092133     0.963318216     0.000010295     0.000010052     0.000004961
H         3.154649126     0.556171046     0.764609896     0.000010513     0.000011753     0.000000689
H         2.946925891     0.512672676    -0.269457585    -0.000017367     0.000007287     0.000001992
H         2.355047231    -0.179375402    -0.126006721     0.000004511    -0.000002450    -0.000024063
