4
# Step: 0 Box:    8.0000    8.0000    8.0000 
H         1.950106755     0.658767628     0.748522822     0.000004384    -0.000004788    -0.000013326
H         3.012823305     0.438457896     1.042630827    -0.000003146    -0.000006259     0.000017541
H         3.156392601    -0.056672705     0.104620119    -0.000010896    -0.000008017     0.000010772
H         2.221572971    -0.370601685     0.100857605    -0.000000158    -0.000013823     0.000005282
4
# Step: 1 Box:    8.0000    8.0000    8.0000 
H         2.104621512     0.641894780     0.659801082     0.000006309     0.000003992    -0.000015105
H         2.834845181     0.306605962     1.082650556    -0.000003109    -0.000014149     0.000014447
H         3.096614809    -0.061982955     0.258670569    -0.000013639     0.000000794     0.000012179
H         2.210164241    -0.533676567     0.190951160     0.000002408    -0.000017541     0.000005061
4
# Step: 2 Box:    8.0000    8.0000    8.0000 
H         2.044898662     0.794350531     0.627744991    -0.000003723     0.000012045     0.000001276
H         2.742726519     0.197048257     1.153826873    -0.000006840     0.000001111     0.000010768
H         3.118440131    -0.199225765     0.335448417    -0.000006698    -0.000019495     0.000005560
H         2.260145195    -0.707477561     0.240317366     0.000010345    -0.000016831    -0.000003324
