4
# Step: 0 Box:    8.0000    8.0000    8.0000 
H         1.972293108     0.424268767     0.781660045     0.000021268    -0.000002074    -0.000005754
H         2.986367557     0.484239084     1.124596983    -0.000000971     0.000003415    -0.000001070
H         3.237925224     0.143467305     0.183824255    -0.000004383     0.000030454    -0.000021483
H         2.369155580    -0.380752224     0.112352843    -0.000004285     0.000007166     0.000004294
4
# Step: 1 Box:    8.0000    8.0000    8.0000 
H         2.095254042     0.480186195     0.825499204    -0.000005760     0.000009361     0.000007496
H         3.029162746     0.501772634     0.978303881     0.000014743     0.000001986    -0.000005205
H         3.110981695     0.388680910     0.096633683    -0.000012419     0.000017577    -0.000014041
H         2.443746328    -0.319478065     0.067828085     0.000013049     0.000003283    -0.000008100
4
# Step: 2 Box:    8.0000    8.0000    8.0000 
H         2.020470389     0.601828378     0.990807206     0.000002928     0.000011296     0.000013145
H         3.104785151     0.549365767     0.941630331     0.000005713     0.000014772    -0.000003739
H         3.075399070     0.528279768    -0.088151380    -0.000013268     0.000000605     0.000000159
H         2.570958921    -0.318511417    -0.066962171     0.000012443    -0.000000490    -0.000025703
4
# Step: 3 Box:    8.0000    8.0000    8.0000 
H         2.147844466     0.709822010     1.035847699     0.000006567     0.000009088    -0.000003914
H         3.074678354     0.573477816     0.909555816     0.000007472     0.000001218    -0.000007360
H         2.942794278     0.687960873    -0.150885313    -0.000017459     0.000008515     0.000004759
H         2.684423301    -0.348547328    -0.178520253     0.000010257     0.000004086    -0.000007604
