4
# Step: 0 Box:    8.0000    8.0000    8.0000 
H         2.133441397    -0.527381938     1.097923599    -0.000545494    -0.000172544    -0.000479009
H         3.072821017    -0.353634162     0.821439694    -0.000126545     0.000553464    -0.000212019
H         2.834306858     0.534547031     0.541330737     0.001530247     0.000836282     0.000974859
H         2.020311498     0.187196191     0.004106299    -0.000858208    -0.001217202    -0.000283831
4
# Step: 1 Box:    8.0000    8.0000    8.0000 
H         2.097884232    -0.525666120     1.047252400     0.000154120     0.000119462    -0.000463061
H         3.079125753    -0.363443786     0.822085512    -0.000182414    -0.000019770     0.000182713
H         2.794295649     0.579628841     0.532151744    -0.001430982    -0.000500091    -0.000624962
H         2.089575136     0.150208187     0.063310673     0.001459276     0.000400399     0.000905310
4
# Step: 2 Box:    8.0000    8.0000    8.0000 
H         2.112047094    -0.536828920     1.019704535    -0.000306725    -0.000236758    -0.000015165
H         3.050844542    -0.316915384     0.836007959     0.000474932     0.000252331     0.000236907
H         2.822821424     0.580944713     0.587641478     0.000885743     0.000569201     0.000997509
H         2.075167711     0.113526713     0.021446357    -0.001053950    -0.000584774    -0.001219251
4
# Step: 3 Box:    8.0000    8.0000    8.0000 
H         2.117470147    -0.552577352     1.025358011     0.000859161    -0.000223690     0.000142397
H         3.104454601    -0.339204879     0.893196389    -0.000613278    -0.000136149     0.000479449
H         2.738645396     0.561112946     0.563767862    -0.001161438    -0.000574908    -0.000669447
H         2.100310625     0.171396407    -0.017521933     0.000915556     0.000934747     0.000047601
4
# Step: 4 Box:    8.0000    8.0000    8.0000 
H         2.141251455    -0.623641881     1.075449173    -0.000977431    -0.000871558     0.000726149
H         3.042083701    -0.306400284     0.880348448     0.000646442     0.000366801    -0.000493147
H         2.764374451     0.602828002     0.621622142     0.000289757     0.000815119     0.000806653
H         2.113171162     0.167941285    -0.112619433     0.000041232    -0.000310362    -0.001039656
4
# Step: 5 Box:    8.0000    8.0000    8.0000 
H         2.121978173    -0.655241506     1.127801894     0.001214922     0.000321537     0.000097919
H         3.059742686    -0.313391628     0.856207987    -0.001267398    -0.000272877     0.000058320
H         2.663510404     0.593868700     0.596142307    -0.000989477    -0.000552725    -0.000158259
H         2.215649508     0.215491555    -0.115351858     0.001041953     0.000504065     0.000002020
