4
# Step: 0 Box:    8.0000    8.0000    8.0000 
H         2.133441397    -0.527381938     1.097923599     0.000545494     0.000172544     0.000479009
H         3.072821017    -0.353634162     0.821439694     0.000126545    -0.000553464     0.000212019
H         2.834306858     0.534547031     0.541330737    -0.001530247    -0.000836282    -0.000974859
H         2.020311498     0.187196191     0.004106299     0.000858208     0.001217202     0.000283831
4
# Step: 1 Box:    8.0000    8.0000    8.0000 
H         2.161968792    -0.530208483     1.180142964    -0.000106977    -0.000276105     0.001066877
H         3.060809867    -0.417401582     0.796586714    -0.000483133     0.000185212    -0.000910807
H         2.804753325     0.558105595     0.515640042     0.001486147     0.000612856     0.000887095
H         2.033348786     0.230231592    -0.027569392    -0.000896037    -0.000521964    -0.001043165
4
# Step: 2 Box:    8.0000    8.0000    8.0000 
H         2.166101694    -0.533545948     1.283148271     0.000597821     0.000369283     0.000502031
H         3.017988602    -0.394509947     0.700310547    -0.000417419    -0.000655931    -0.000395284
H         2.808764556     0.527971458     0.531880582    -0.001583732    -0.000431447    -0.000683702
H         2.068025917     0.240811559    -0.050539071     0.001403331     0.000718096     0.000576954
