4
# Step: 0 Box:    8.0000    8.0000    8.0000 
H         1.959535916    -0.149324890     1.417817117    -0.001036560    -0.000689531     0.000918791
H         1.753644890    -0.096864074     0.419980687    -0.000217707     0.000249240     0.000510237
H         2.473946499    -0.747344664     0.239464212     0.002011906     0.000583284     0.000385196
H         3.076556719    -0.171386672     0.716419684    -0.000757639    -0.000142993    -0.001814224
4
# Step: 1 Box:    8.0000    8.0000    8.0000 
H         1.842236452    -0.231470728     1.475749022    -0.000865660    -0.000955452     0.000339090
H         1.769062296    -0.115910802     0.486922790     0.000322697    -0.000643517     0.000188102
H         2.505832453    -0.761769670     0.219446589    -0.001157198    -0.000162151    -0.000086617
H         3.146552824    -0.055769100     0.611563299     0.001700161     0.001761120    -0.000440575
