4
# Step: 0 Box:    8.0000    8.0000    8.0000 
H         1.837403841     0.165376257     0.689562713     0.000020236    -0.000019061     0.000002765
H         2.642088664     0.243326272     1.243959056    -0.000010011    -0.000001561     0.000000956
H         3.012180363    -0.642090584     0.854803912    -0.000012527    -0.000013251     0.000014895
H         2.323056425    -0.750597743     0.184758360    -0.000007645     0.000000545     0.000001924
4
# Step: 1 Box:    8.0000    8.0000    8.0000 
H         1.906497785     0.003650948     0.611585863    -0.000005518    -0.000006072    -0.000013303
H         2.648097365     0.125491822     1.288914135     0.000008021    -0.000017904     0.000008075
H         2.929731471    -0.716828323     1.027242743    -0.000009785    -0.000001599     0.000010733
H         2.232068079    -0.725775998     0.248396749    -0.000001225    -0.000002927     0.000012060
4
# Step: 2 Box:    8.0000    8.0000    8.0000 
H         1.910182459     0.027005845     0.543274933     0.000007927     0.000006016     0.000000049
H         2.583261970     0.051847647     1.351045848    -0.000008475    -0.000000375     0.000011065
H         2.887569585    -0.860850357     1.054066756    -0.000006660    -0.000008520    -0.000002514
H         2.249158402    -0.820357446     0.405796157    -0.000000434    -0.000022730     0.000007182
4
# Step: 3 Box:    8.0000    8.0000    8.0000 
H         2.039984845     0.120757216     0.552901476     0.000016575     0.000003108    -0.000005630
H         2.460731080    -0.016353222     1.448737049    -0.000013124    -0.000004641     0.000019318
H         2.919945824    -0.869907556     1.101449169     0.000001218     0.000001722    -0.000006026
H         2.135345834    -1.085344320     0.404242241    -0.000010981    -0.000021338     0.000005373
4
# Step: 4 Box:    8.0000    8.0000    8.0000 
H         2.191484177     0.237511649     0.541991780     0.000012844     0.000012805     0.000000858
H         2.308797532    -0.209569875     1.440622458    -0.000007837    -0.000018234    -0.000002680
H         2.886611935    -0.863917664     1.055758579    -0.000017073     0.000002569    -0.000006509
H         2.107412125    -1.221607495     0.596367921     0.000006850    -0.000014616     0.000019101
