ITEM: TIMESTEP
0
ITEM: NUMBER OF ATOMS
22
ITEM: BOX BOUNDS xy xz yz pp pp pp
-4.9995480380000004e+00 1.5000451959999999e+01 0.0000000000000000e+00
-1.5745359020000000e+00 1.8425464099999999e+01 0.0000000000000000e+00
-1.6850538110000000e+00 1.8314946190000001e+01 0.0000000000000000e+00
ITEM: ATOMS id type x y z vx vy vz id
8 2 1.26111 -0.3944 -0.301952 0 0 0 8
9 1 1.52588 -0.985827 -1.17991 0 0 0 9
10 3 -0.122852 -0.489927 0.246787 0 0 0 10
11 4 -0.205386 0.0677823 1.17979 0 0 0 11
12 4 -0.291556 -1.57454 0.510541 0 0 0 12
13 3 -1.06003 -0.0584409 -0.829586 0 0 0 13
14 4 -0.942041 -0.761118 -1.68505 0 0 0 14
15 4 -0.796564 0.975549 -1.13279 0 0 0 15
16 2 -2.48337 -0.100545 -0.429087 0 0 0 16
17 5 -3.3065 0.264563 -1.33359 0 0 0 17
18 2 -2.97861 -0.503493 0.842994 0 0 0 18
19 1 -2.30598 -0.814093 1.61784 0 0 0 19
20 2 -4.26557 -0.505322 1.09938 0 0 0 20
21 1 -4.68082 -0.805442 2.0559 0 0 0 21
22 1 -4.99955 -0.195874 0.339794 0 0 0 22
1 1 4.24559 1.81965 1.06044 0 0 0 1
2 2 4.45815 1.20742 0.181311 0 0 0 2
3 1 5.44836 1.25873 -0.233036 0 0 0 3
4 2 3.55265 0.425354 -0.371875 0 0 0 4
5 1 3.81487 -0.154399 -1.23386 0 0 0 5
6 2 2.19708 0.370477 0.214709 0 0 0 6
7 1 1.93513 0.953888 1.08116 0 0 0 7
ITEM: TIMESTEP
5
ITEM: NUMBER OF ATOMS
22
ITEM: BOX BOUNDS xy xz yz pp pp pp
-4.9995480380000004e+00 1.5000451959999999e+01 0.0000000000000000e+00
-1.5745359020000000e+00 1.8425464099999999e+01 0.0000000000000000e+00
-1.6850538110000000e+00 1.8314946190000001e+01 0.0000000000000000e+00
ITEM: ATOMS id type x y z vx vy vz id
8 2 1.25848 -0.398901 -0.306311 -0.00200491 -0.00341764 -0.00326059 8
9 1 1.52113 -0.984204 -1.17554 -0.00343713 0.00041419 0.00217825 9
10 3 -0.120745 -0.494232 0.249287 0.00164708 -0.00301154 0.00185736 10
11 4 -0.211642 0.0784875 1.17447 -0.00457376 0.00810582 -0.00427005 11
12 4 -0.293349 -1.54576 0.503009 -0.00191908 0.0185934 -0.00474113 12
13 3 -1.05868 -0.0583952 -0.83116 0.000966762 2.28932e-05 -0.00108772 13
14 4 -0.941757 -0.743046 -1.67661 0.0005381 0.0126695 0.00481641 14
15 4 -0.802621 0.96124 -1.13354 -0.00410997 -0.00947464 -0.0010092 15
16 2 -2.49061 -0.0962862 -0.439074 -0.00538513 0.00321941 -0.00754753 16
17 5 -3.30246 0.262773 -1.32919 0.00300491 -0.00133327 0.003275 17
18 2 -2.97287 -0.504387 0.844433 0.00434613 -0.000683953 0.00110931 18
19 1 -2.30171 -0.816412 1.62322 0.00332134 -0.00173276 0.00395805 19
20 2 -4.27404 -0.505141 1.1005 -0.00638042 8.96602e-05 0.000980958 20
21 1 -4.67748 -0.805517 2.05548 0.00213851 -0.000257933 0.000336896 21
22 1 -4.9942 -0.200293 0.351678 0.00243347 -0.0027959 0.00771621 22
1 1 4.24754 1.81563 1.05433 0.00134616 -0.00222642 -0.00352215 1
2 2 4.46206 1.21126 0.184299 0.00308416 0.00288889 0.00217589 2
3 1 5.4554 1.26062 -0.234099 0.00505659 0.0015331 -0.000542654 3
4 2 3.5478 0.422514 -0.373127 -0.0036654 -0.00220493 -0.00102 4
5 1 3.81531 -0.160979 -1.24251 -0.000117061 -0.00456938 -0.00581476 5
6 2 2.20105 0.374104 0.217536 0.00299782 0.00278784 0.00219631 6
7 1 1.93999 0.959942 1.08616 0.00398329 0.00459077 0.00367559 7
