ITEM: TIMESTEP
0
ITEM: NUMBER OF ATOMS
12
ITEM: BOX BOUNDS pp pp pp
0.0 12.65
0.0 12.65
0.0 1.2650000000000000e+01
ITEM: ATOMS id type x y z vx vy vz id
7 5 4.384256506938219 8.003355399367864 7.372018049597092 -0.014301651313584027 0.016007563899104328 0.01691422283308608 7
9 6 10.758743884849041 9.198588618116874 8.037957707414138 0.0038285044410721228 0.00719945728382664 -0.00047124555310907885 9
5 3 7.511907235532774 7.766655487407436 8.344268407978305 -0.0016724304795578547 0.02158555210691685 -0.0288996937039768 5
3 3 8.504538384116422 7.536298208103928 6.800392146176915 0.015957368771065416 -0.02592836380409414 0.023443292439172918 3
1 1 8.148997043118491 7.183640437019078 7.7809994397521995 -0.010239961697628754 0.001176626289379295 -0.012648425196873562 1
6 4 5.364106573839941 8.106801579110401 7.343602339749583 0.0030527169852823063 -0.002490370786143803 0.003488502498980323 6
4 3 8.692931528197049 6.276881001982052 8.161549173833663 -0.0005821233192328709 0.019892313170746613 0.010949096917142324 4
8 5 5.583913804655984 7.124664547169739 7.516340623242136 -0.006992041584827773 0.00034087355883307996 -0.015674601805267134 8
2 2 6.259829976271577 5.099679957761694 7.965792743475779 0.0032654061151133834 0.003371010384015116 0.0006893136259800179 2
10 7 0 0 0 1 1 1 10
11 7 1 1 1 2 2 2 11
12 7 2 2 2 3 3 3 12
ITEM: TIMESTEP
1
ITEM: NUMBER OF ATOMS
12
ITEM: BOX BOUNDS pp pp pp
2.0 14.65
1.0 1.3650000000000000e+01
3.0 15.65
ITEM: ATOMS id type x y z vx vy vz id
7 5 1 1 1 -1 -1 -1 7
9 6 2 2 2 -2 -2 -2 9
5 3 3 3 3 -3 -3 -3 5
3 3 4 4 4 -4 -4 -4 3
1 1 5 5 5 -5 -5 -5 1
6 4 6 6 6 -6 -6 -6 6
4 3 7 7 7 -7 -7 -7 4
8 5 8 8 8 -8 -8 -8 8
2 2 9 9 9 -9 -9 -9 2
10 7 10 10 10 -10 -10 -10 10
11 7 11 11 11 -11 -11 -11 11
12 7 12 12 12 -12 -12 -12 12
