A partial lammps.data file that is used for testing

12 atoms
7 atom types
6 bonds
3 bond types
7 angles
3 angle types

0 12.65 xlo xhi
0 12.65 ylo yhi
0 12.65 zlo zhi

Masses

1 12.011
2 35.45
3 1.008
4 15.9994
5 1.008
6 35.45
7 99.9

Pair Coeffs # lj/cut/coul/cut

1 0.066 3.5
2 0.3 3.4
3 0.03 2.5
4 0.1521 3.1507
5 0 1
6 0.148 3.77

Bond Coeffs # harmonic

1 245 1.781
2 340 1.09
3 450 0.9574

Angle Coeffs # harmonic

1 51 107.6
2 33 107.8
3 55 104.52

Atoms # full

2 1 2 -0.1773 11.850459957003215 4.85154997805213 3.061434763726886 -1 0 0
1 1 1 -0.152 10.523215643844784 5.584146762861626 3.9541762937180116 -1 0 0
3 1 3 0.1098 9.654977703291298 5.717772129387471 3.290403138081801 -1 0 0
5 1 3 0.1098 10.273330952207415 4.8311222434681875 4.6861841612291615 -1 0 0
6 2 4 -0.834 2.9217694481760357 10.26365961497886 5.4897902139892905 0 0 0
7 2 5 0.417 3.2495484449906256 11.06680116671672 5.93176094747153 0 0 0
8 2 5 0.417 3.8170500538968644 9.897154946097613 5.264852853234961 0 0 0
4 1 3 0.1098 10.825174938357724 6.507999886339562 4.493934318213777 -1 0 0
9 3 6 -1 3.939029050876049 1.2916110065653101 6.785522938952793 0 0 0
10 4 7 0.0 0.0 0.0 0.0 0 0 0
11 5 7 0.0 0.0 0.0 0.0 0 0 0
12 6 7 0.0 0.0 0.0 0.0 0 0 0

Velocities

2 0.002879255762863061 -0.00436311214446344 -0.0008208303878145281
1 0.003988273597613001 -0.0013590441020853957 0.004488982987106242
3 -0.007853333571826066 0.004286694165352935 0.00992821032058094
5 -0.010776434259502882 -0.008140198317047731 0.002009206889449739
6 -0.003516272760108601 1.034165453356824e-06 0.004713253925275533
7 0.01607276551743864 0.00340693812402767 0.02974660128151161
8 -0.007893260632556479 -0.003997928051184606 0.027901757557177234
4 0.022471098326494986 -0.005901892368337777 -0.0021315075995566265
9 -0.0004344201390704043 0.003948351535886793 -0.0033621286151682413
10 0 0 0
11 0 0 0
12 0 0 0


Bonds

1 1 2 1
2 2 3 1
3 2 5 1
4 3 6 7
5 3 6 8
6 2 4 1

Angles

1 1 2 1 3
2 1 2 1 4
3 1 2 1 5
4 2 3 1 4
5 2 4 1 5
6 2 3 1 5
7 3 7 6 8
