1
# Step: 0 Box:       inf    0.0000    0.0000 
H         0.696015295     0.000000000     0.000000000     0.044056124    -0.423770972     0.100043578
1
# Step: 1 Box:       inf    0.0000    0.0000 
H         0.697841793     0.000000000     0.000000000     0.113356292    -0.423770972     0.100043578
1
# Step: 2 Box:       inf    0.0000    0.0000 
H         0.700572154     0.000000000     0.000000000     0.109626974    -0.423770972     0.100043578
1
# Step: 3 Box:       inf    0.0000    0.0000 
H         0.704269778     0.000000000     0.000000000     0.199532008    -0.423770972     0.100043578
1
# Step: 4 Box:       inf    0.0000    0.0000 
H         0.710185517     0.000000000     0.000000000     0.271816824    -0.423770972     0.100043578
1
# Step: 5 Box:       inf    0.0000    0.0000 
H         0.716885980     0.000000000     0.000000000     0.263929314    -0.423770972     0.100043578
1
# Step: 6 Box:       inf    0.0000    0.0000 
H         0.723357940     0.000000000     0.000000000     0.280274995    -0.423770972     0.100043578
1
# Step: 7 Box:       inf    0.0000    0.0000 
H         0.730225242     0.000000000     0.000000000     0.296065058    -0.423770972     0.100043578
1
# Step: 8 Box:       inf    0.0000    0.0000 
H         0.738385510     0.000000000     0.000000000     0.332255216    -0.423770972     0.100043578
1
# Step: 9 Box:       inf    0.0000    0.0000 
H         0.746258363     0.000000000     0.000000000     0.345334671    -0.423770972     0.100043578
1
# Step: 10 Box:       inf    0.0000    0.0000 
H         0.755744574     0.000000000     0.000000000     0.389777924    -0.423770972     0.100043578
1
# Step: 11 Box:       inf    0.0000    0.0000 
H         0.765551938     0.000000000     0.000000000     0.420624491    -0.423770972     0.100043578
1
# Step: 12 Box:       inf    0.0000    0.0000 
H         0.776437696     0.000000000     0.000000000     0.454572715    -0.423770972     0.100043578
1
# Step: 13 Box:       inf    0.0000    0.0000 
H         0.788224109     0.000000000     0.000000000     0.522265876    -0.423770972     0.100043578
1
# Step: 14 Box:       inf    0.0000    0.0000 
H         0.802540153     0.000000000     0.000000000     0.600787425    -0.423770972     0.100043578
