1
# Step: 0 Box:       inf    0.0000    0.0000 
H         0.696015295     0.000000000     0.000000000    -0.044056124     0.423770972    -0.100043578
1
# Step: 1 Box:       inf    0.0000    0.0000 
H         0.696056190     0.000000000     0.000000000     0.039758510     0.423770972    -0.100043578
1
# Step: 2 Box:       inf    0.0000    0.0000 
H         0.698108862     0.000000000     0.000000000     0.100955429     0.423770972    -0.100043578
1
# Step: 3 Box:       inf    0.0000    0.0000 
H         0.701052223     0.000000000     0.000000000     0.142966785     0.423770972    -0.100043578
1
# Step: 4 Box:       inf    0.0000    0.0000 
H         0.704465748     0.000000000     0.000000000     0.131048284     0.423770972    -0.100043578
1
# Step: 5 Box:       inf    0.0000    0.0000 
H         0.708467920     0.000000000     0.000000000     0.200289289     0.423770972    -0.100043578
1
# Step: 6 Box:       inf    0.0000    0.0000 
H         0.715179239     0.000000000     0.000000000     0.321441143     0.423770972    -0.100043578
1
# Step: 7 Box:       inf    0.0000    0.0000 
H         0.723374419     0.000000000     0.000000000     0.291874053     0.423770972    -0.100043578
1
# Step: 8 Box:       inf    0.0000    0.0000 
H         0.730936580     0.000000000     0.000000000     0.296057139     0.423770972    -0.100043578
1
# Step: 9 Box:       inf    0.0000    0.0000 
H         0.738307165     0.000000000     0.000000000     0.291503846     0.423770972    -0.100043578
1
# Step: 10 Box:       inf    0.0000    0.0000 
H         0.745348699     0.000000000     0.000000000     0.275953850     0.423770972    -0.100043578
1
# Step: 11 Box:       inf    0.0000    0.0000 
H         0.752686884     0.000000000     0.000000000     0.281479349     0.423770972    -0.100043578
1
# Step: 12 Box:       inf    0.0000    0.0000 
H         0.760209741     0.000000000     0.000000000     0.342684932     0.423770972    -0.100043578
1
# Step: 13 Box:       inf    0.0000    0.0000 
H         0.769440157     0.000000000     0.000000000     0.389423407     0.423770972    -0.100043578
1
# Step: 14 Box:       inf    0.0000    0.0000 
H         0.779915438     0.000000000     0.000000000     0.464311555     0.423770972    -0.100043578
1
# Step: 15 Box:       inf    0.0000    0.0000 
H         0.791625765     0.000000000     0.000000000     0.489928802     0.423770972    -0.100043578
1
# Step: 16 Box:       inf    0.0000    0.0000 
H         0.804733841     0.000000000     0.000000000     0.550321412     0.423770972    -0.100043578
