ITEM: TIMESTEP
0
ITEM: NUMBER OF ATOMS
2
 ITEM: BOX BOUNDS xy xz yz pp pp pp
0.0 30.0
0.0 30.0
0.0 30.0
ITEM: ATOMS id type x y z vx vy vz
1 1 15.6203 4.22393 14.2144 0.0206765 -0.00773313 0.0128209
2 1 18.7528 3.08695 14.7958 -0.0217908 -0.007209 -0.0107509
ITEM: TIMESTEP
0
ITEM: NUMBER OF ATOMS
2
 ITEM: BOX BOUNDS xy xz yz pp pp pp
0.0 30.0
0.0 30.0
0.0 30.0
ITEM: ATOMS id type x y z vx vy vz
1 1 15.5804 4.23726 14.1952 0.0179625 -0.00473977 0.00685134
2 1 18.7951 3.09666 14.8144 -0.0205985 -0.00443984 -0.00879974
ITEM: TIMESTEP
0
ITEM: NUMBER OF ATOMS
2
 ITEM: BOX BOUNDS xy xz yz pp pp pp
0.0 30.0
0.0 30.0
0.0 30.0
ITEM: ATOMS id type x y z vx vy vz
1 1 15.5543 4.24461 14.1847 0.0110237 -0.00218624 0.00414792
2 1 18.8349 3.10165 14.8344 -0.01815 -0.00203243 -0.0105564
ITEM: TIMESTEP
0
ITEM: NUMBER OF ATOMS
2
 ITEM: BOX BOUNDS xy xz yz pp pp pp
0.0 30.0
0.0 30.0
0.0 30.0
ITEM: ATOMS id type x y z vx vy vz
1 1 15.5351 4.24869 14.1762 0.0106823 -0.00270581 0.00437068
2 1 18.8717 3.1048 14.8607 -0.0165507 -0.00188051 -0.0130303
ITEM: TIMESTEP
0
ITEM: NUMBER OF ATOMS
2
 ITEM: BOX BOUNDS xy xz yz pp pp pp
0.0 30.0
0.0 30.0
0.0 30.0
ITEM: ATOMS id type x y z vx vy vz
1 1 15.5169 4.25247 14.1692 0.0062028 -0.00180243 0.00474921
2 1 18.8946 3.10403 14.8843 -0.00789031 0.00297042 -0.0102298
ITEM: TIMESTEP
0
ITEM: NUMBER OF ATOMS
2
 ITEM: BOX BOUNDS xy xz yz pp pp pp
0.0 30.0
0.0 30.0
0.0 30.0
ITEM: ATOMS id type x y z vx vy vz
1 1 15.5082 4.25708 14.1612 0.00264198 -0.000727462 0.00220743
2 1 18.9046 3.10258 14.9041 -0.0014765 -0.00112016 -0.00833931
ITEM: TIMESTEP
0
ITEM: NUMBER OF ATOMS
2
 ITEM: BOX BOUNDS xy xz yz pp pp pp
0.0 30.0
0.0 30.0
0.0 30.0
ITEM: ATOMS id type x y z vx vy vz
1 1 15.51 4.25449 14.1609 -0.00107087 0.00353222 -0.000440973
2 1 18.9054 3.10718 14.9168 -0.000763154 -0.00315487 -0.00716503
ITEM: TIMESTEP
0
ITEM: NUMBER OF ATOMS
2
 ITEM: BOX BOUNDS xy xz yz pp pp pp
0.0 30.0
0.0 30.0
0.0 30.0
ITEM: ATOMS id type x y z vx vy vz
1 1 15.515 4.2475 14.1534 -0.00496253 0.00299333 0.00857909
2 1 18.9052 3.11287 14.9303 4.29757e-05 -0.0034919 -0.00896013
ITEM: TIMESTEP
0
ITEM: NUMBER OF ATOMS
2
 ITEM: BOX BOUNDS xy xz yz pp pp pp
0.0 30.0
0.0 30.0
0.0 30.0
ITEM: ATOMS id type x y z vx vy vz
1 1 15.5245 4.24319 14.1343 -0.00555867 0.00138381 0.0103464
2 1 18.8997 3.12161 14.9453 0.0053645 -0.00311458 -0.00612754
ITEM: TIMESTEP
0
ITEM: NUMBER OF ATOMS
2
 ITEM: BOX BOUNDS xy xz yz pp pp pp
0.0 30.0
0.0 30.0
0.0 30.0
ITEM: ATOMS id type x y z vx vy vz
1 1 15.5422 4.24125 14.1194 -0.0110516 0.00164715 0.0063717
2 1 18.8848 3.12546 14.9612 0.0110516 -0.00164715 -0.0063717
ITEM: TIMESTEP
0
ITEM: NUMBER OF ATOMS
2
 ITEM: BOX BOUNDS xy xz yz pp pp pp
0.0 30.0
0.0 30.0
0.0 30.0
ITEM: ATOMS id type x y z vx vy vz
1 1 15.5615 4.24185 14.105 0.0102997 0.000639988 -0.00681811
2 1 18.8674 3.12749 14.9758 -0.00572921 -0.000838796 0.00641906
ITEM: TIMESTEP
0
ITEM: NUMBER OF ATOMS
2
 ITEM: BOX BOUNDS xy xz yz pp pp pp
0.0 30.0
0.0 30.0
0.0 30.0
ITEM: ATOMS id type x y z vx vy vz
1 1 15.5818 4.24013 14.0947 0.0115159 -0.00130339 -0.00325457
2 1 18.8521 3.13265 14.985 -0.00871262 0.00543849 0.00264662
ITEM: TIMESTEP
0
ITEM: NUMBER OF ATOMS
2
 ITEM: BOX BOUNDS xy xz yz pp pp pp
0.0 30.0
0.0 30.0
0.0 30.0
ITEM: ATOMS id type x y z vx vy vz
1 1 15.6086 4.23752 14.0928 0.0149847 -0.00322865 0.00130962
2 1 18.8322 3.14686 14.992 -0.0106016 0.00494929 0.00254376
ITEM: TIMESTEP
0
ITEM: NUMBER OF ATOMS
2
 ITEM: BOX BOUNDS xy xz yz pp pp pp
0.0 30.0
0.0 30.0
0.0 30.0
ITEM: ATOMS id type x y z vx vy vz
1 1 15.6395 4.23346 14.0931 0.0179425 -0.0021338 -0.00193136
2 1 18.8113 3.15331 15.0 -0.0104406 0.00244612 0.00532812
ITEM: TIMESTEP
0
ITEM: NUMBER OF ATOMS
2
 ITEM: BOX BOUNDS xy xz yz pp pp pp
0.0 30.0
0.0 30.0
0.0 30.0
ITEM: ATOMS id type x y z vx vy vz
1 1 15.6795 4.22957 14.0928 0.0235857 -0.00304213 0.00167386
2 1 18.7923 3.15341 15.0161 -0.0107062 0.000140853 0.00905032
